ITEM: TIMESTEP
0
ITEM: NUMBER OF ATOMS
480
ITEM: BOX BOUNDS
0 8
0 8
-0.0001 34.8001
ITEM: ATOMS id type xs ys zs
451 16 0 0 2.87355e-06
361 13 0.25 0 2.87355e-06
391 14 0.5 0 2.87355e-06
421 15 0.75 0 2.87355e-06
91 4 0 0.25 2.87355e-06
1 1 0.25 0.25 2.87355e-06
31 2 0.5 0.25 2.87355e-06
61 3 0.75 0.25 2.87355e-06
211 8 0 0.5 2.87355e-06
121 5 0.25 0.5 2.87355e-06
151 6 0.5 0.5 2.87355e-06
181 7 0.75 0.5 2.87355e-06
331 12 0 0.75 2.87355e-06
241 9 0.25 0.75 2.87355e-06
271 10 0.5 0.75 2.87355e-06
301 11 0.75 0.75 2.87355e-06
452 16 0 0 0.0344854
362 13 0.25 0 0.0344854
392 14 0.5 0 0.0344854
422 15 0.75 0 0.0344854
92 4 0 0.25 0.0344854
2 1 0.25 0.25 0.0344854
32 2 0.5 0.25 0.0344854
62 3 0.75 0.25 0.0344854
212 8 0 0.5 0.0344854
122 5 0.25 0.5 0.0344854
152 6 0.5 0.5 0.0344854
182 7 0.75 0.5 0.0344854
332 12 0 0.75 0.0344854
242 9 0.25 0.75 0.0344854
272 10 0.5 0.75 0.0344854
302 11 0.75 0.75 0.0344854
453 16 0 0 0.068968
363 13 0.25 0 0.068968
393 14 0.5 0 0.068968
423 15 0.75 0 0.068968
93 4 0 0.25 0.068968
3 1 0.25 0.25 0.068968
33 2 0.5 0.25 0.068968
63 3 0.75 0.25 0.068968
213 8 0 0.5 0.068968
123 5 0.25 0.5 0.068968
153 6 0.5 0.5 0.068968
183 7 0.75 0.5 0.068968
333 12 0 0.75 0.068968
243 9 0.25 0.75 0.068968
273 10 0.5 0.75 0.068968
303 11 0.75 0.75 0.068968
454 16 0 0 0.103451
364 13 0.25 0 0.103451
394 14 0.5 0 0.103451
424 15 0.75 0 0.103451
94 4 0 0.25 0.103451
4 1 0.25 0.25 0.103451
34 2 0.5 0.25 0.103451
64 3 0.75 0.25 0.103451
214 8 0 0.5 0.103451
124 5 0.25 0.5 0.103451
154 6 0.5 0.5 0.103451
184 7 0.75 0.5 0.103451
334 12 0 0.75 0.103451
244 9 0.25 0.75 0.103451
274 10 0.5 0.75 0.103451
304 11 0.75 0.75 0.103451
455 16 0 0 0.137933
365 13 0.25 0 0.137933
395 14 0.5 0 0.137933
425 15 0.75 0 0.137933
95 4 0 0.25 0.137933
5 1 0.25 0.25 0.137933
35 2 0.5 0.25 0.137933
65 3 0.75 0.25 0.137933
215 8 0 0.5 0.137933
125 5 0.25 0.5 0.137933
155 6 0.5 0.5 0.137933
185 7 0.75 0.5 0.137933
335 12 0 0.75 0.137933
245 9 0.25 0.75 0.137933
275 10 0.5 0.75 0.137933
305 11 0.75 0.75 0.137933
456 16 0 0 0.172416
366 13 0.25 0 0.172416
396 14 0.5 0 0.172416
426 15 0.75 0 0.172416
96 4 0 0.25 0.172416
6 1 0.25 0.25 0.172416
36 2 0.5 0.25 0.172416
66 3 0.75 0.25 0.172416
216 8 0 0.5 0.172416
126 5 0.25 0.5 0.172416
156 6 0.5 0.5 0.172416
186 7 0.75 0.5 0.172416
336 12 0 0.75 0.172416
246 9 0.25 0.75 0.172416
276 10 0.5 0.75 0.172416
306 11 0.75 0.75 0.172416
457 16 0 0 0.206898
367 13 0.25 0 0.206898
397 14 0.5 0 0.206898
427 15 0.75 0 0.206898
97 4 0 0.25 0.206898
7 1 0.25 0.25 0.206898
37 2 0.5 0.25 0.206898
67 3 0.75 0.25 0.206898
217 8 0 0.5 0.206898
127 5 0.25 0.5 0.206898
157 6 0.5 0.5 0.206898
187 7 0.75 0.5 0.206898
337 12 0 0.75 0.206898
247 9 0.25 0.75 0.206898
277 10 0.5 0.75 0.206898
307 11 0.75 0.75 0.206898
458 16 0 0 0.241381
368 13 0.25 0 0.241381
398 14 0.5 0 0.241381
428 15 0.75 0 0.241381
98 4 0 0.25 0.241381
8 1 0.25 0.25 0.241381
38 2 0.5 0.25 0.241381
68 3 0.75 0.25 0.241381
218 8 0 0.5 0.241381
128 5 0.25 0.5 0.241381
158 6 0.5 0.5 0.241381
188 7 0.75 0.5 0.241381
338 12 0 0.75 0.241381
248 9 0.25 0.75 0.241381
278 10 0.5 0.75 0.241381
308 11 0.75 0.75 0.241381
459 16 0 0 0.275863
369 13 0.25 0 0.275863
399 14 0.5 0 0.275863
429 15 0.75 0 0.275863
99 4 0 0.25 0.275863
9 1 0.25 0.25 0.275863
39 2 0.5 0.25 0.275863
69 3 0.75 0.25 0.275863
219 8 0 0.5 0.275863
129 5 0.25 0.5 0.275863
159 6 0.5 0.5 0.275863
189 7 0.75 0.5 0.275863
339 12 0 0.75 0.275863
249 9 0.25 0.75 0.275863
279 10 0.5 0.75 0.275863
309 11 0.75 0.75 0.275863
460 16 0 0 0.310346
370 13 0.25 0 0.310346
400 14 0.5 0 0.310346
430 15 0.75 0 0.310346
100 4 0 0.25 0.310346
10 1 0.25 0.25 0.310346
40 2 0.5 0.25 0.310346
70 3 0.75 0.25 0.310346
220 8 0 0.5 0.310346
130 5 0.25 0.5 0.310346
160 6 0.5 0.5 0.310346
190 7 0.75 0.5 0.310346
340 12 0 0.75 0.310346
250 9 0.25 0.75 0.310346
280 10 0.5 0.75 0.310346
310 11 0.75 0.75 0.310346
461 16 0 0 0.344828
371 13 0.25 0 0.344828
401 14 0.5 0 0.344828
431 15 0.75 0 0.344828
101 4 0 0.25 0.344828
11 1 0.25 0.25 0.344828
41 2 0.5 0.25 0.344828
71 3 0.75 0.25 0.344828
221 8 0 0.5 0.344828
131 5 0.25 0.5 0.344828
161 6 0.5 0.5 0.344828
191 7 0.75 0.5 0.344828
341 12 0 0.75 0.344828
251 9 0.25 0.75 0.344828
281 10 0.5 0.75 0.344828
311 11 0.75 0.75 0.344828
462 16 0 0 0.379311
372 13 0.25 0 0.379311
402 14 0.5 0 0.379311
432 15 0.75 0 0.379311
102 4 0 0.25 0.379311
12 1 0.25 0.25 0.379311
42 2 0.5 0.25 0.379311
72 3 0.75 0.25 0.379311
222 8 0 0.5 0.379311
132 5 0.25 0.5 0.379311
162 6 0.5 0.5 0.379311
192 7 0.75 0.5 0.379311
342 12 0 0.75 0.379311
252 9 0.25 0.75 0.379311
282 10 0.5 0.75 0.379311
312 11 0.75 0.75 0.379311
463 16 0 0 0.413794
373 13 0.25 0 0.413794
403 14 0.5 0 0.413794
433 15 0.75 0 0.413794
103 4 0 0.25 0.413794
13 1 0.25 0.25 0.413794
43 2 0.5 0.25 0.413794
73 3 0.75 0.25 0.413794
223 8 0 0.5 0.413794
133 5 0.25 0.5 0.413794
163 6 0.5 0.5 0.413794
193 7 0.75 0.5 0.413794
343 12 0 0.75 0.413794
253 9 0.25 0.75 0.413794
283 10 0.5 0.75 0.413794
313 11 0.75 0.75 0.413794
464 16 0 0 0.448276
374 13 0.25 0 0.448276
404 14 0.5 0 0.448276
434 15 0.75 0 0.448276
104 4 0 0.25 0.448276
14 1 0.25 0.25 0.448276
44 2 0.5 0.25 0.448276
74 3 0.75 0.25 0.448276
224 8 0 0.5 0.448276
134 5 0.25 0.5 0.448276
164 6 0.5 0.5 0.448276
194 7 0.75 0.5 0.448276
344 12 0 0.75 0.448276
254 9 0.25 0.75 0.448276
284 10 0.5 0.75 0.448276
314 11 0.75 0.75 0.448276
465 16 0 0 0.482759
375 13 0.25 0 0.482759
405 14 0.5 0 0.482759
435 15 0.75 0 0.482759
105 4 0 0.25 0.482759
15 1 0.25 0.25 0.482759
45 2 0.5 0.25 0.482759
75 3 0.75 0.25 0.482759
225 8 0 0.5 0.482759
135 5 0.25 0.5 0.482759
165 6 0.5 0.5 0.482759
195 7 0.75 0.5 0.482759
345 12 0 0.75 0.482759
255 9 0.25 0.75 0.482759
285 10 0.5 0.75 0.482759
315 11 0.75 0.75 0.482759
466 16 0 0 0.517241
376 13 0.25 0 0.517241
406 14 0.5 0 0.517241
436 15 0.75 0 0.517241
106 4 0 0.25 0.517241
16 1 0.25 0.25 0.517241
46 2 0.5 0.25 0.517241
76 3 0.75 0.25 0.517241
226 8 0 0.5 0.517241
136 5 0.25 0.5 0.517241
166 6 0.5 0.5 0.517241
196 7 0.75 0.5 0.517241
346 12 0 0.75 0.517241
256 9 0.25 0.75 0.517241
286 10 0.5 0.75 0.517241
316 11 0.75 0.75 0.517241
467 16 0 0 0.551724
377 13 0.25 0 0.551724
407 14 0.5 0 0.551724
437 15 0.75 0 0.551724
107 4 0 0.25 0.551724
17 1 0.25 0.25 0.551724
47 2 0.5 0.25 0.551724
77 3 0.75 0.25 0.551724
227 8 0 0.5 0.551724
137 5 0.25 0.5 0.551724
167 6 0.5 0.5 0.551724
197 7 0.75 0.5 0.551724
347 12 0 0.75 0.551724
257 9 0.25 0.75 0.551724
287 10 0.5 0.75 0.551724
317 11 0.75 0.75 0.551724
468 16 0 0 0.586206
378 13 0.25 0 0.586206
408 14 0.5 0 0.586206
438 15 0.75 0 0.586206
108 4 0 0.25 0.586206
18 1 0.25 0.25 0.586206
48 2 0.5 0.25 0.586206
78 3 0.75 0.25 0.586206
228 8 0 0.5 0.586206
138 5 0.25 0.5 0.586206
168 6 0.5 0.5 0.586206
198 7 0.75 0.5 0.586206
348 12 0 0.75 0.586206
258 9 0.25 0.75 0.586206
288 10 0.5 0.75 0.586206
318 11 0.75 0.75 0.586206
469 16 0 0 0.620689
379 13 0.25 0 0.620689
409 14 0.5 0 0.620689
439 15 0.75 0 0.620689
109 4 0 0.25 0.620689
19 1 0.25 0.25 0.620689
49 2 0.5 0.25 0.620689
79 3 0.75 0.25 0.620689
229 8 0 0.5 0.620689
139 5 0.25 0.5 0.620689
169 6 0.5 0.5 0.620689
199 7 0.75 0.5 0.620689
349 12 0 0.75 0.620689
259 9 0.25 0.75 0.620689
289 10 0.5 0.75 0.620689
319 11 0.75 0.75 0.620689
470 16 0 0 0.655172
380 13 0.25 0 0.655172
410 14 0.5 0 0.655172
440 15 0.75 0 0.655172
110 4 0 0.25 0.655172
20 1 0.25 0.25 0.655172
50 2 0.5 0.25 0.655172
80 3 0.75 0.25 0.655172
230 8 0 0.5 0.655172
140 5 0.25 0.5 0.655172
170 6 0.5 0.5 0.655172
200 7 0.75 0.5 0.655172
350 12 0 0.75 0.655172
260 9 0.25 0.75 0.655172
290 10 0.5 0.75 0.655172
320 11 0.75 0.75 0.655172
471 16 0 0 0.689654
381 13 0.25 0 0.689654
411 14 0.5 0 0.689654
441 15 0.75 0 0.689654
111 4 0 0.25 0.689654
21 1 0.25 0.25 0.689654
51 2 0.5 0.25 0.689654
81 3 0.75 0.25 0.689654
231 8 0 0.5 0.689654
141 5 0.25 0.5 0.689654
171 6 0.5 0.5 0.689654
201 7 0.75 0.5 0.689654
351 12 0 0.75 0.689654
261 9 0.25 0.75 0.689654
291 10 0.5 0.75 0.689654
321 11 0.75 0.75 0.689654
472 16 0 0 0.724137
382 13 0.25 0 0.724137
412 14 0.5 0 0.724137
442 15 0.75 0 0.724137
112 4 0 0.25 0.724137
22 1 0.25 0.25 0.724137
52 2 0.5 0.25 0.724137
82 3 0.75 0.25 0.724137
232 8 0 0.5 0.724137
142 5 0.25 0.5 0.724137
172 6 0.5 0.5 0.724137
202 7 0.75 0.5 0.724137
352 12 0 0.75 0.724137
262 9 0.25 0.75 0.724137
292 10 0.5 0.75 0.724137
322 11 0.75 0.75 0.724137
473 16 0 0 0.758619
383 13 0.25 0 0.758619
413 14 0.5 0 0.758619
443 15 0.75 0 0.758619
113 4 0 0.25 0.758619
23 1 0.25 0.25 0.758619
53 2 0.5 0.25 0.758619
83 3 0.75 0.25 0.758619
233 8 0 0.5 0.758619
143 5 0.25 0.5 0.758619
173 6 0.5 0.5 0.758619
203 7 0.75 0.5 0.758619
353 12 0 0.75 0.758619
263 9 0.25 0.75 0.758619
293 10 0.5 0.75 0.758619
323 11 0.75 0.75 0.758619
474 16 0 0 0.793102
384 13 0.25 0 0.793102
414 14 0.5 0 0.793102
444 15 0.75 0 0.793102
114 4 0 0.25 0.793102
24 1 0.25 0.25 0.793102
54 2 0.5 0.25 0.793102
84 3 0.75 0.25 0.793102
234 8 0 0.5 0.793102
144 5 0.25 0.5 0.793102
174 6 0.5 0.5 0.793102
204 7 0.75 0.5 0.793102
354 12 0 0.75 0.793102
264 9 0.25 0.75 0.793102
294 10 0.5 0.75 0.793102
324 11 0.75 0.75 0.793102
475 16 0 0 0.827584
385 13 0.25 0 0.827584
415 14 0.5 0 0.827584
445 15 0.75 0 0.827584
115 4 0 0.25 0.827584
25 1 0.25 0.25 0.827584
55 2 0.5 0.25 0.827584
85 3 0.75 0.25 0.827584
235 8 0 0.5 0.827584
145 5 0.25 0.5 0.827584
175 6 0.5 0.5 0.827584
205 7 0.75 0.5 0.827584
355 12 0 0.75 0.827584
265 9 0.25 0.75 0.827584
295 10 0.5 0.75 0.827584
325 11 0.75 0.75 0.827584
476 16 0 0 0.862067
386 13 0.25 0 0.862067
416 14 0.5 0 0.862067
446 15 0.75 0 0.862067
116 4 0 0.25 0.862067
26 1 0.25 0.25 0.862067
56 2 0.5 0.25 0.862067
86 3 0.75 0.25 0.862067
236 8 0 0.5 0.862067
146 5 0.25 0.5 0.862067
176 6 0.5 0.5 0.862067
206 7 0.75 0.5 0.862067
356 12 0 0.75 0.862067
266 9 0.25 0.75 0.862067
296 10 0.5 0.75 0.862067
326 11 0.75 0.75 0.862067
477 16 0 0 0.896549
387 13 0.25 0 0.896549
417 14 0.5 0 0.896549
447 15 0.75 0 0.896549
117 4 0 0.25 0.896549
27 1 0.25 0.25 0.896549
57 2 0.5 0.25 0.896549
87 3 0.75 0.25 0.896549
237 8 0 0.5 0.896549
147 5 0.25 0.5 0.896549
177 6 0.5 0.5 0.896549
207 7 0.75 0.5 0.896549
357 12 0 0.75 0.896549
267 9 0.25 0.75 0.896549
297 10 0.5 0.75 0.896549
327 11 0.75 0.75 0.896549
478 16 0 0 0.931032
388 13 0.25 0 0.931032
418 14 0.5 0 0.931032
448 15 0.75 0 0.931032
118 4 0 0.25 0.931032
28 1 0.25 0.25 0.931032
58 2 0.5 0.25 0.931032
88 3 0.75 0.25 0.931032
238 8 0 0.5 0.931032
148 5 0.25 0.5 0.931032
178 6 0.5 0.5 0.931032
208 7 0.75 0.5 0.931032
358 12 0 0.75 0.931032
268 9 0.25 0.75 0.931032
298 10 0.5 0.75 0.931032
328 11 0.75 0.75 0.931032
479 16 0 0 0.965515
389 13 0.25 0 0.965515
419 14 0.5 0 0.965515
449 15 0.75 0 0.965515
119 4 0 0.25 0.965515
29 1 0.25 0.25 0.965515
59 2 0.5 0.25 0.965515
89 3 0.75 0.25 0.965515
239 8 0 0.5 0.965515
149 5 0.25 0.5 0.965515
179 6 0.5 0.5 0.965515
209 7 0.75 0.5 0.965515
359 12 0 0.75 0.965515
269 9 0.25 0.75 0.965515
299 10 0.5 0.75 0.965515
329 11 0.75 0.75 0.965515
480 16 0 0 0.999997
390 13 0.25 0 0.999997
420 14 0.5 0 0.999997
450 15 0.75 0 0.999997
120 4 0 0.25 0.999997
30 1 0.25 0.25 0.999997
60 2 0.5 0.25 0.999997
90 3 0.75 0.25 0.999997
240 8 0 0.5 0.999997
150 5 0.25 0.5 0.999997
180 6 0.5 0.5 0.999997
210 7 0.75 0.5 0.999997
360 12 0 0.75 0.999997
270 9 0.25 0.75 0.999997
300 10 0.5 0.75 0.999997
330 11 0.75 0.75 0.999997
