ITEM: TIMESTEP
0
ITEM: NUMBER OF ATOMS
480
ITEM: BOX BOUNDS
0 20
0 20
-0.0001 31.9001
ITEM: ATOMS id type xs ys zs
451 16 0 0 3.13478e-06
361 13 0.25 0 3.13478e-06
391 14 0.5 0 3.13478e-06
421 15 0.75 0 3.13478e-06
91 4 0 0.25 3.13478e-06
1 1 0.25 0.25 3.13478e-06
31 2 0.5 0.25 3.13478e-06
61 3 0.75 0.25 3.13478e-06
211 8 0 0.5 3.13478e-06
121 5 0.25 0.5 3.13478e-06
151 6 0.5 0.5 3.13478e-06
181 7 0.75 0.5 3.13478e-06
331 12 0 0.75 3.13478e-06
241 9 0.25 0.75 3.13478e-06
271 10 0.5 0.75 3.13478e-06
301 11 0.75 0.75 3.13478e-06
452 16 0 0 0.0344857
362 13 0.25 0 0.0344857
392 14 0.5 0 0.0344857
422 15 0.75 0 0.0344857
92 4 0 0.25 0.0344857
2 1 0.25 0.25 0.0344857
32 2 0.5 0.25 0.0344857
62 3 0.75 0.25 0.0344857
212 8 0 0.5 0.0344857
122 5 0.25 0.5 0.0344857
152 6 0.5 0.5 0.0344857
182 7 0.75 0.5 0.0344857
332 12 0 0.75 0.0344857
242 9 0.25 0.75 0.0344857
272 10 0.5 0.75 0.0344857
302 11 0.75 0.75 0.0344857
453 16 0 0 0.0689682
363 13 0.25 0 0.0689682
393 14 0.5 0 0.0689682
423 15 0.75 0 0.0689682
93 4 0 0.25 0.0689682
3 1 0.25 0.25 0.0689682
33 2 0.5 0.25 0.0689682
63 3 0.75 0.25 0.0689682
213 8 0 0.5 0.0689682
123 5 0.25 0.5 0.0689682
153 6 0.5 0.5 0.0689682
183 7 0.75 0.5 0.0689682
333 12 0 0.75 0.0689682
243 9 0.25 0.75 0.0689682
273 10 0.5 0.75 0.0689682
303 11 0.75 0.75 0.0689682
454 16 0 0 0.103451
364 13 0.25 0 0.103451
394 14 0.5 0 0.103451
424 15 0.75 0 0.103451
94 4 0 0.25 0.103451
4 1 0.25 0.25 0.103451
34 2 0.5 0.25 0.103451
64 3 0.75 0.25 0.103451
214 8 0 0.5 0.103451
124 5 0.25 0.5 0.103451
154 6 0.5 0.5 0.103451
184 7 0.75 0.5 0.103451
334 12 0 0.75 0.103451
244 9 0.25 0.75 0.103451
274 10 0.5 0.75 0.103451
304 11 0.75 0.75 0.103451
455 16 0 0 0.137933
365 13 0.25 0 0.137933
395 14 0.5 0 0.137933
425 15 0.75 0 0.137933
95 4 0 0.25 0.137933
5 1 0.25 0.25 0.137933
35 2 0.5 0.25 0.137933
65 3 0.75 0.25 0.137933
215 8 0 0.5 0.137933
125 5 0.25 0.5 0.137933
155 6 0.5 0.5 0.137933
185 7 0.75 0.5 0.137933
335 12 0 0.75 0.137933
245 9 0.25 0.75 0.137933
275 10 0.5 0.75 0.137933
305 11 0.75 0.75 0.137933
456 16 0 0 0.172416
366 13 0.25 0 0.172416
396 14 0.5 0 0.172416
426 15 0.75 0 0.172416
96 4 0 0.25 0.172416
6 1 0.25 0.25 0.172416
36 2 0.5 0.25 0.172416
66 3 0.75 0.25 0.172416
216 8 0 0.5 0.172416
126 5 0.25 0.5 0.172416
156 6 0.5 0.5 0.172416
186 7 0.75 0.5 0.172416
336 12 0 0.75 0.172416
246 9 0.25 0.75 0.172416
276 10 0.5 0.75 0.172416
306 11 0.75 0.75 0.172416
457 16 0 0 0.206898
367 13 0.25 0 0.206898
397 14 0.5 0 0.206898
427 15 0.75 0 0.206898
97 4 0 0.25 0.206898
7 1 0.25 0.25 0.206898
37 2 0.5 0.25 0.206898
67 3 0.75 0.25 0.206898
217 8 0 0.5 0.206898
127 5 0.25 0.5 0.206898
157 6 0.5 0.5 0.206898
187 7 0.75 0.5 0.206898
337 12 0 0.75 0.206898
247 9 0.25 0.75 0.206898
277 10 0.5 0.75 0.206898
307 11 0.75 0.75 0.206898
458 16 0 0 0.241381
368 13 0.25 0 0.241381
398 14 0.5 0 0.241381
428 15 0.75 0 0.241381
98 4 0 0.25 0.241381
8 1 0.25 0.25 0.241381
38 2 0.5 0.25 0.241381
68 3 0.75 0.25 0.241381
218 8 0 0.5 0.241381
128 5 0.25 0.5 0.241381
158 6 0.5 0.5 0.241381
188 7 0.75 0.5 0.241381
338 12 0 0.75 0.241381
248 9 0.25 0.75 0.241381
278 10 0.5 0.75 0.241381
308 11 0.75 0.75 0.241381
459 16 0 0 0.275863
369 13 0.25 0 0.275863
399 14 0.5 0 0.275863
429 15 0.75 0 0.275863
99 4 0 0.25 0.275863
9 1 0.25 0.25 0.275863
39 2 0.5 0.25 0.275863
69 3 0.75 0.25 0.275863
219 8 0 0.5 0.275863
129 5 0.25 0.5 0.275863
159 6 0.5 0.5 0.275863
189 7 0.75 0.5 0.275863
339 12 0 0.75 0.275863
249 9 0.25 0.75 0.275863
279 10 0.5 0.75 0.275863
309 11 0.75 0.75 0.275863
460 16 0 0 0.310346
370 13 0.25 0 0.310346
400 14 0.5 0 0.310346
430 15 0.75 0 0.310346
100 4 0 0.25 0.310346
10 1 0.25 0.25 0.310346
40 2 0.5 0.25 0.310346
70 3 0.75 0.25 0.310346
220 8 0 0.5 0.310346
130 5 0.25 0.5 0.310346
160 6 0.5 0.5 0.310346
190 7 0.75 0.5 0.310346
340 12 0 0.75 0.310346
250 9 0.25 0.75 0.310346
280 10 0.5 0.75 0.310346
310 11 0.75 0.75 0.310346
461 16 0 0 0.344829
371 13 0.25 0 0.344829
401 14 0.5 0 0.344829
431 15 0.75 0 0.344829
101 4 0 0.25 0.344829
11 1 0.25 0.25 0.344829
41 2 0.5 0.25 0.344829
71 3 0.75 0.25 0.344829
221 8 0 0.5 0.344829
131 5 0.25 0.5 0.344829
161 6 0.5 0.5 0.344829
191 7 0.75 0.5 0.344829
341 12 0 0.75 0.344829
251 9 0.25 0.75 0.344829
281 10 0.5 0.75 0.344829
311 11 0.75 0.75 0.344829
462 16 0 0 0.379311
372 13 0.25 0 0.379311
402 14 0.5 0 0.379311
432 15 0.75 0 0.379311
102 4 0 0.25 0.379311
12 1 0.25 0.25 0.379311
42 2 0.5 0.25 0.379311
72 3 0.75 0.25 0.379311
222 8 0 0.5 0.379311
132 5 0.25 0.5 0.379311
162 6 0.5 0.5 0.379311
192 7 0.75 0.5 0.379311
342 12 0 0.75 0.379311
252 9 0.25 0.75 0.379311
282 10 0.5 0.75 0.379311
312 11 0.75 0.75 0.379311
463 16 0 0 0.413794
373 13 0.25 0 0.413794
403 14 0.5 0 0.413794
433 15 0.75 0 0.413794
103 4 0 0.25 0.413794
13 1 0.25 0.25 0.413794
43 2 0.5 0.25 0.413794
73 3 0.75 0.25 0.413794
223 8 0 0.5 0.413794
133 5 0.25 0.5 0.413794
163 6 0.5 0.5 0.413794
193 7 0.75 0.5 0.413794
343 12 0 0.75 0.413794
253 9 0.25 0.75 0.413794
283 10 0.5 0.75 0.413794
313 11 0.75 0.75 0.413794
464 16 0 0 0.448276
374 13 0.25 0 0.448276
404 14 0.5 0 0.448276
434 15 0.75 0 0.448276
104 4 0 0.25 0.448276
14 1 0.25 0.25 0.448276
44 2 0.5 0.25 0.448276
74 3 0.75 0.25 0.448276
224 8 0 0.5 0.448276
134 5 0.25 0.5 0.448276
164 6 0.5 0.5 0.448276
194 7 0.75 0.5 0.448276
344 12 0 0.75 0.448276
254 9 0.25 0.75 0.448276
284 10 0.5 0.75 0.448276
314 11 0.75 0.75 0.448276
465 16 0 0 0.482759
375 13 0.25 0 0.482759
405 14 0.5 0 0.482759
435 15 0.75 0 0.482759
105 4 0 0.25 0.482759
15 1 0.25 0.25 0.482759
45 2 0.5 0.25 0.482759
75 3 0.75 0.25 0.482759
225 8 0 0.5 0.482759
135 5 0.25 0.5 0.482759
165 6 0.5 0.5 0.482759
195 7 0.75 0.5 0.482759
345 12 0 0.75 0.482759
255 9 0.25 0.75 0.482759
285 10 0.5 0.75 0.482759
315 11 0.75 0.75 0.482759
466 16 0 0 0.517241
376 13 0.25 0 0.517241
406 14 0.5 0 0.517241
436 15 0.75 0 0.517241
106 4 0 0.25 0.517241
16 1 0.25 0.25 0.517241
46 2 0.5 0.25 0.517241
76 3 0.75 0.25 0.517241
226 8 0 0.5 0.517241
136 5 0.25 0.5 0.517241
166 6 0.5 0.5 0.517241
196 7 0.75 0.5 0.517241
346 12 0 0.75 0.517241
256 9 0.25 0.75 0.517241
286 10 0.5 0.75 0.517241
316 11 0.75 0.75 0.517241
467 16 0 0 0.551724
377 13 0.25 0 0.551724
407 14 0.5 0 0.551724
437 15 0.75 0 0.551724
107 4 0 0.25 0.551724
17 1 0.25 0.25 0.551724
47 2 0.5 0.25 0.551724
77 3 0.75 0.25 0.551724
227 8 0 0.5 0.551724
137 5 0.25 0.5 0.551724
167 6 0.5 0.5 0.551724
197 7 0.75 0.5 0.551724
347 12 0 0.75 0.551724
257 9 0.25 0.75 0.551724
287 10 0.5 0.75 0.551724
317 11 0.75 0.75 0.551724
468 16 0 0 0.586206
378 13 0.25 0 0.586206
408 14 0.5 0 0.586206
438 15 0.75 0 0.586206
108 4 0 0.25 0.586206
18 1 0.25 0.25 0.586206
48 2 0.5 0.25 0.586206
78 3 0.75 0.25 0.586206
228 8 0 0.5 0.586206
138 5 0.25 0.5 0.586206
168 6 0.5 0.5 0.586206
198 7 0.75 0.5 0.586206
348 12 0 0.75 0.586206
258 9 0.25 0.75 0.586206
288 10 0.5 0.75 0.586206
318 11 0.75 0.75 0.586206
469 16 0 0 0.620689
379 13 0.25 0 0.620689
409 14 0.5 0 0.620689
439 15 0.75 0 0.620689
109 4 0 0.25 0.620689
19 1 0.25 0.25 0.620689
49 2 0.5 0.25 0.620689
79 3 0.75 0.25 0.620689
229 8 0 0.5 0.620689
139 5 0.25 0.5 0.620689
169 6 0.5 0.5 0.620689
199 7 0.75 0.5 0.620689
349 12 0 0.75 0.620689
259 9 0.25 0.75 0.620689
289 10 0.5 0.75 0.620689
319 11 0.75 0.75 0.620689
470 16 0 0 0.655171
380 13 0.25 0 0.655171
410 14 0.5 0 0.655171
440 15 0.75 0 0.655171
110 4 0 0.25 0.655171
20 1 0.25 0.25 0.655171
50 2 0.5 0.25 0.655171
80 3 0.75 0.25 0.655171
230 8 0 0.5 0.655171
140 5 0.25 0.5 0.655171
170 6 0.5 0.5 0.655171
200 7 0.75 0.5 0.655171
350 12 0 0.75 0.655171
260 9 0.25 0.75 0.655171
290 10 0.5 0.75 0.655171
320 11 0.75 0.75 0.655171
471 16 0 0 0.689654
381 13 0.25 0 0.689654
411 14 0.5 0 0.689654
441 15 0.75 0 0.689654
111 4 0 0.25 0.689654
21 1 0.25 0.25 0.689654
51 2 0.5 0.25 0.689654
81 3 0.75 0.25 0.689654
231 8 0 0.5 0.689654
141 5 0.25 0.5 0.689654
171 6 0.5 0.5 0.689654
201 7 0.75 0.5 0.689654
351 12 0 0.75 0.689654
261 9 0.25 0.75 0.689654
291 10 0.5 0.75 0.689654
321 11 0.75 0.75 0.689654
472 16 0 0 0.724137
382 13 0.25 0 0.724137
412 14 0.5 0 0.724137
442 15 0.75 0 0.724137
112 4 0 0.25 0.724137
22 1 0.25 0.25 0.724137
52 2 0.5 0.25 0.724137
82 3 0.75 0.25 0.724137
232 8 0 0.5 0.724137
142 5 0.25 0.5 0.724137
172 6 0.5 0.5 0.724137
202 7 0.75 0.5 0.724137
352 12 0 0.75 0.724137
262 9 0.25 0.75 0.724137
292 10 0.5 0.75 0.724137
322 11 0.75 0.75 0.724137
473 16 0 0 0.758619
383 13 0.25 0 0.758619
413 14 0.5 0 0.758619
443 15 0.75 0 0.758619
113 4 0 0.25 0.758619
23 1 0.25 0.25 0.758619
53 2 0.5 0.25 0.758619
83 3 0.75 0.25 0.758619
233 8 0 0.5 0.758619
143 5 0.25 0.5 0.758619
173 6 0.5 0.5 0.758619
203 7 0.75 0.5 0.758619
353 12 0 0.75 0.758619
263 9 0.25 0.75 0.758619
293 10 0.5 0.75 0.758619
323 11 0.75 0.75 0.758619
474 16 0 0 0.793102
384 13 0.25 0 0.793102
414 14 0.5 0 0.793102
444 15 0.75 0 0.793102
114 4 0 0.25 0.793102
24 1 0.25 0.25 0.793102
54 2 0.5 0.25 0.793102
84 3 0.75 0.25 0.793102
234 8 0 0.5 0.793102
144 5 0.25 0.5 0.793102
174 6 0.5 0.5 0.793102
204 7 0.75 0.5 0.793102
354 12 0 0.75 0.793102
264 9 0.25 0.75 0.793102
294 10 0.5 0.75 0.793102
324 11 0.75 0.75 0.793102
475 16 0 0 0.827584
385 13 0.25 0 0.827584
415 14 0.5 0 0.827584
445 15 0.75 0 0.827584
115 4 0 0.25 0.827584
25 1 0.25 0.25 0.827584
55 2 0.5 0.25 0.827584
85 3 0.75 0.25 0.827584
235 8 0 0.5 0.827584
145 5 0.25 0.5 0.827584
175 6 0.5 0.5 0.827584
205 7 0.75 0.5 0.827584
355 12 0 0.75 0.827584
265 9 0.25 0.75 0.827584
295 10 0.5 0.75 0.827584
325 11 0.75 0.75 0.827584
476 16 0 0 0.862067
386 13 0.25 0 0.862067
416 14 0.5 0 0.862067
446 15 0.75 0 0.862067
116 4 0 0.25 0.862067
26 1 0.25 0.25 0.862067
56 2 0.5 0.25 0.862067
86 3 0.75 0.25 0.862067
236 8 0 0.5 0.862067
146 5 0.25 0.5 0.862067
176 6 0.5 0.5 0.862067
206 7 0.75 0.5 0.862067
356 12 0 0.75 0.862067
266 9 0.25 0.75 0.862067
296 10 0.5 0.75 0.862067
326 11 0.75 0.75 0.862067
477 16 0 0 0.896549
387 13 0.25 0 0.896549
417 14 0.5 0 0.896549
447 15 0.75 0 0.896549
117 4 0 0.25 0.896549
27 1 0.25 0.25 0.896549
57 2 0.5 0.25 0.896549
87 3 0.75 0.25 0.896549
237 8 0 0.5 0.896549
147 5 0.25 0.5 0.896549
177 6 0.5 0.5 0.896549
207 7 0.75 0.5 0.896549
357 12 0 0.75 0.896549
267 9 0.25 0.75 0.896549
297 10 0.5 0.75 0.896549
327 11 0.75 0.75 0.896549
478 16 0 0 0.931032
388 13 0.25 0 0.931032
418 14 0.5 0 0.931032
448 15 0.75 0 0.931032
118 4 0 0.25 0.931032
28 1 0.25 0.25 0.931032
58 2 0.5 0.25 0.931032
88 3 0.75 0.25 0.931032
238 8 0 0.5 0.931032
148 5 0.25 0.5 0.931032
178 6 0.5 0.5 0.931032
208 7 0.75 0.5 0.931032
358 12 0 0.75 0.931032
268 9 0.25 0.75 0.931032
298 10 0.5 0.75 0.931032
328 11 0.75 0.75 0.931032
479 16 0 0 0.965514
389 13 0.25 0 0.965514
419 14 0.5 0 0.965514
449 15 0.75 0 0.965514
119 4 0 0.25 0.965514
29 1 0.25 0.25 0.965514
59 2 0.5 0.25 0.965514
89 3 0.75 0.25 0.965514
239 8 0 0.5 0.965514
149 5 0.25 0.5 0.965514
179 6 0.5 0.5 0.965514
209 7 0.75 0.5 0.965514
359 12 0 0.75 0.965514
269 9 0.25 0.75 0.965514
299 10 0.5 0.75 0.965514
329 11 0.75 0.75 0.965514
480 16 0 0 0.999997
390 13 0.25 0 0.999997
420 14 0.5 0 0.999997
450 15 0.75 0 0.999997
120 4 0 0.25 0.999997
30 1 0.25 0.25 0.999997
60 2 0.5 0.25 0.999997
90 3 0.75 0.25 0.999997
240 8 0 0.5 0.999997
150 5 0.25 0.5 0.999997
180 6 0.5 0.5 0.999997
210 7 0.75 0.5 0.999997
360 12 0 0.75 0.999997
270 9 0.25 0.75 0.999997
300 10 0.5 0.75 0.999997
330 11 0.75 0.75 0.999997
ITEM: TIMESTEP
10000
ITEM: NUMBER OF ATOMS
480
ITEM: BOX BOUNDS
0 20
0 20
-0.0001 28.1057
ITEM: ATOMS id type xs ys zs
451 16 0 0 3.55798e-06
361 13 0.25 0 3.55798e-06
391 14 0.5 0 3.55798e-06
421 15 0.75 0 3.55798e-06
62 3 0.719436 0.22131 0.0193885
91 4 0 0.25 3.55798e-06
2 1 0.211412 0.268389 0.020164
1 1 0.25 0.25 3.55798e-06
31 2 0.5 0.25 3.55798e-06
61 3 0.75 0.25 3.55798e-06
122 5 0.227501 0.461938 0.0173787
211 8 0 0.5 3.55798e-06
121 5 0.25 0.5 3.55798e-06
152 6 0.460822 0.501499 0.0244121
151 6 0.5 0.5 3.55798e-06
181 7 0.75 0.5 3.55798e-06
242 9 0.285431 0.738414 0.022424
331 12 0 0.75 3.55798e-06
241 9 0.25 0.75 3.55798e-06
271 10 0.5 0.75 3.55798e-06
301 11 0.75 0.75 3.55798e-06
422 15 0.697238 0.990221 0.0056994
362 13 0.240808 0.0325876 0.0274574
392 14 0.502643 0.033684 0.0262577
63 3 0.698228 0.191141 0.0427134
32 2 0.499362 0.229589 0.0314783
92 4 0.997568 0.277316 0.0268197
123 5 0.229949 0.443795 0.0475232
212 8 0.00691477 0.493453 0.0327619
153 6 0.447574 0.531574 0.0495142
182 7 0.73425 0.532465 0.0273195
272 10 0.501401 0.73966 0.0331265
302 11 0.731929 0.737708 0.032339
332 12 0.998973 0.720624 0.0279433
452 16 0.0289023 0.985472 0.0260123
423 15 0.673384 0.994722 0.0356191
363 13 0.265237 0.0392968 0.0585668
393 14 0.493059 0.0527026 0.057128
64 3 0.668335 0.165853 0.0609931
33 2 0.505528 0.226621 0.0645727
93 4 0.979046 0.281503 0.0609537
3 1 0.212987 0.292988 0.0514212
213 8 0.025291 0.506535 0.0677055
154 6 0.414743 0.548931 0.0729893
183 7 0.709626 0.538257 0.0589241
243 9 0.28753 0.729155 0.0561987
333 12 0.995531 0.739155 0.0618145
273 10 0.507805 0.752711 0.0686886
303 11 0.713969 0.758595 0.0627709
453 16 0.0443194 0.975898 0.0587841
424 15 0.689555 0.987739 0.068149
364 13 0.2792 0.027855 0.0911694
394 14 0.464243 0.0580764 0.0872257
65 3 0.657828 0.154755 0.0960442
34 2 0.519554 0.240577 0.0962434
94 4 0.961843 0.265151 0.0923852
4 1 0.197329 0.304199 0.0828059
124 5 0.23045 0.408147 0.0751879
184 7 0.684713 0.516993 0.0876459
244 9 0.275819 0.73322 0.0914203
304 11 0.693566 0.745821 0.0940067
334 12 0.0107942 0.758204 0.0912115
454 16 0.0613833 0.951983 0.0880535
365 13 0.278746 0.00739034 0.121792
395 14 0.437526 0.0308961 0.110229
66 3 0.627745 0.171729 0.117545
5 1 0.208962 0.303922 0.117622
95 4 0.946824 0.296756 0.115184
125 5 0.218288 0.414979 0.10742
214 8 0.0119809 0.515759 0.104233
185 7 0.694077 0.516888 0.122169
155 6 0.408038 0.550861 0.106433
305 11 0.688886 0.723546 0.123687
274 10 0.508443 0.760588 0.101407
335 12 0.984338 0.778153 0.122683
425 15 0.694462 0.990242 0.101889
396 14 0.420522 0.0292654 0.14449
35 2 0.503816 0.226084 0.128331
6 1 0.222136 0.291719 0.149529
96 4 0.929979 0.312135 0.14597
126 5 0.214129 0.392923 0.138489
215 8 0.024647 0.507056 0.136339
156 6 0.419645 0.566538 0.140943
245 9 0.276745 0.745989 0.126051
275 10 0.50152 0.741023 0.132347
336 12 0.996188 0.813902 0.14407
455 16 0.0464514 0.945931 0.125717
426 15 0.722907 0.981773 0.131654
366 13 0.269745 0.00583658 0.153937
67 3 0.616973 0.173167 0.151967
36 2 0.498715 0.204152 0.158183
127 5 0.211213 0.395313 0.174823
216 8 0.0474864 0.475806 0.164373
186 7 0.700946 0.538546 0.15278
276 10 0.488176 0.712013 0.157319
306 11 0.680639 0.700729 0.153397
246 9 0.29358 0.758065 0.157324
337 12 0.959036 0.823897 0.167822
456 16 0.0536036 0.919536 0.153755
427 15 0.744028 0.980713 0.164838
367 13 0.282874 0.0184894 0.186389
397 14 0.414115 0.0267191 0.178238
37 2 0.53242 0.189737 0.184268
68 3 0.614206 0.189957 0.18262
7 1 0.217412 0.291177 0.186436
97 4 0.942118 0.332206 0.176275
217 8 0.0337437 0.449912 0.190851
157 6 0.409832 0.563455 0.176807
187 7 0.720907 0.54034 0.185761
277 10 0.472757 0.698994 0.193629
307 11 0.670432 0.679897 0.184032
247 9 0.308173 0.774224 0.188308
457 16 0.0630306 0.91131 0.185492
428 15 0.752467 0.967281 0.197209
368 13 0.266839 0.019533 0.218512
398 14 0.41975 0.0315859 0.21386
38 2 0.541977 0.168961 0.2164
69 3 0.611905 0.208799 0.21606
8 1 0.221554 0.30153 0.221145
98 4 0.969401 0.342135 0.20223
128 5 0.206434 0.407674 0.208988
218 8 0.0158273 0.455439 0.223057
158 6 0.423111 0.531501 0.205443
188 7 0.747501 0.53863 0.216731
308 11 0.66205 0.652561 0.211376
278 10 0.459141 0.685287 0.224193
248 9 0.308634 0.769348 0.222848
338 12 0.943804 0.828219 0.20205
458 16 0.0713605 0.928784 0.217121
369 13 0.281001 0.0254552 0.249889
399 14 0.427934 0.0355056 0.249798
39 2 0.519989 0.142586 0.239767
70 3 0.591287 0.241542 0.235357
99 4 0.00258694 0.334684 0.230571
129 5 0.181094 0.40929 0.239519
159 6 0.453281 0.520367 0.232667
189 7 0.769686 0.574254 0.232953
309 11 0.620943 0.649332 0.229932
339 12 0.940384 0.804803 0.232423
459 16 0.0454882 0.957203 0.241906
429 15 0.760605 0.943509 0.22635
40 2 0.51187 0.136685 0.272755
71 3 0.586244 0.257048 0.268771
9 1 0.224614 0.29519 0.257687
100 4 0.00941837 0.327466 0.26339
130 5 0.150519 0.419039 0.263002
219 8 0.0105895 0.467992 0.25714
160 6 0.46855 0.489635 0.260851
190 7 0.794269 0.57897 0.263201
279 10 0.442865 0.673101 0.256648
310 11 0.607524 0.659348 0.265656
249 9 0.314969 0.790865 0.255738
340 12 0.953108 0.794712 0.264907
430 15 0.763315 0.927046 0.259227
370 13 0.3035 0.0325096 0.280961
400 14 0.41831 0.0651927 0.280144
10 1 0.222843 0.315316 0.290879
101 4 0.0299761 0.355578 0.288369
131 5 0.111837 0.435053 0.282305
161 6 0.473958 0.457104 0.286315
220 8 0.00279123 0.496725 0.283438
191 7 0.804984 0.571143 0.294256
280 10 0.430676 0.665146 0.28975
250 9 0.305019 0.811802 0.285403
341 12 0.965654 0.790996 0.299452
431 15 0.772132 0.904808 0.29218
460 16 0.0438749 0.953082 0.27668
371 13 0.291672 0.0199883 0.31185
401 14 0.426299 0.0652325 0.31377
41 2 0.512779 0.11608 0.303289
72 3 0.596586 0.248606 0.301772
11 1 0.209788 0.308947 0.323257
102 4 0.0424051 0.367121 0.320224
162 6 0.489699 0.426944 0.313673
132 5 0.107196 0.441382 0.317381
221 8 0.993945 0.513629 0.312623
281 10 0.441522 0.66177 0.324627
311 11 0.609307 0.664086 0.302639
251 9 0.299991 0.823851 0.317792
432 15 0.764753 0.914476 0.323275
461 16 0.0511099 0.973245 0.305454
462 16 0.0339454 0.00449832 0.333185
372 13 0.280273 0.0393771 0.342689
402 14 0.439557 0.0605498 0.349116
42 2 0.534694 0.0965414 0.330716
73 3 0.607251 0.24272 0.337379
103 4 0.046982 0.333779 0.345642
163 6 0.515074 0.41892 0.343095
133 5 0.0854947 0.463966 0.340913
222 8 0.0159787 0.535402 0.33755
192 7 0.805092 0.583911 0.326165
312 11 0.627106 0.672255 0.335938
342 12 0.933473 0.79351 0.327788
463 16 0.0213137 0.015226 0.366624
43 2 0.547302 0.0880616 0.365096
74 3 0.621385 0.224063 0.36834
12 1 0.219193 0.287332 0.354389
164 6 0.553035 0.410429 0.364261
134 5 0.10339 0.492505 0.367585
223 8 0.0423637 0.563075 0.363193
193 7 0.80876 0.572883 0.358664
282 10 0.471465 0.664313 0.351692
313 11 0.649193 0.700212 0.358547
343 12 0.912641 0.791835 0.358493
252 9 0.295858 0.834712 0.35037
433 15 0.751412 0.935887 0.354134
434 15 0.715653 0.964837 0.371604
435 15 0.706865 0.00486809 0.394888
373 13 0.255238 0.0478175 0.37614
403 14 0.444056 0.0661924 0.38721
44 2 0.552083 0.0773664 0.398066
75 3 0.638239 0.225579 0.398365
13 1 0.231743 0.261123 0.383091
104 4 0.0460618 0.320888 0.379396
165 6 0.575056 0.420648 0.393452
135 5 0.136321 0.499864 0.392651
224 8 0.0658389 0.584941 0.395641
194 7 0.811167 0.577762 0.392454
283 10 0.493336 0.653411 0.381028
314 11 0.66733 0.708237 0.391096
253 9 0.29101 0.818772 0.381521
344 12 0.930048 0.790698 0.391192
464 16 0.0184577 0.0178236 0.402328
374 13 0.23636 0.0441809 0.408011
404 14 0.456396 0.0677082 0.421483
76 3 0.668673 0.216552 0.424197
14 1 0.241676 0.252253 0.416949
105 4 0.043029 0.29859 0.411543
166 6 0.59326 0.453934 0.414455
136 5 0.178308 0.503146 0.412441
195 7 0.812259 0.589265 0.424847
284 10 0.501921 0.657125 0.415136
254 9 0.308089 0.785979 0.404289
345 12 0.9569 0.80711 0.416844
465 16 0.0233188 0.0342023 0.436919
375 13 0.203627 0.024152 0.434675
436 15 0.702402 0.0216563 0.431069
45 2 0.557352 0.100889 0.430095
46 2 0.552103 0.143309 0.446572
106 4 0.0750334 0.28281 0.433972
15 1 0.22851 0.2649 0.446746
137 5 0.210263 0.494691 0.436279
167 6 0.602348 0.473533 0.445374
225 8 0.0818144 0.57632 0.425538
285 10 0.520286 0.660176 0.447977
315 11 0.673381 0.722342 0.427609
255 9 0.312614 0.766103 0.437091
346 12 0.984321 0.830948 0.438282
437 15 0.699706 0.00642835 0.466554
466 16 0.014984 0.0487551 0.469134
405 14 0.487013 0.0517788 0.451055
47 2 0.508734 0.143726 0.469437
77 3 0.691441 0.216113 0.454874
107 4 0.0664572 0.292385 0.468359
138 5 0.231894 0.489271 0.466431
226 8 0.080948 0.56647 0.460596
196 7 0.796968 0.603178 0.454086
286 10 0.553319 0.651069 0.474702
316 11 0.706749 0.721628 0.451325
317 11 0.742769 0.717246 0.469681
256 9 0.310556 0.763384 0.47236
347 12 0.973035 0.847341 0.468211
376 13 0.190365 0.99179 0.458115
406 14 0.471006 0.0438932 0.483454
467 16 0.0176614 0.0903617 0.492081
78 3 0.729515 0.204843 0.47639
16 1 0.230915 0.279309 0.482388
168 6 0.599138 0.456983 0.478087
139 5 0.256392 0.485652 0.496522
227 8 0.0627412 0.575263 0.492409
197 7 0.795549 0.602605 0.491268
318 11 0.77465 0.693762 0.489695
257 9 0.301399 0.736958 0.499007
377 13 0.19936 0.970386 0.490786
407 14 0.475606 0.0440658 0.515778
468 16 0.00633014 0.115596 0.52327
48 2 0.494573 0.139509 0.503362
79 3 0.748681 0.217424 0.508238
108 4 0.0745972 0.281805 0.502562
17 1 0.241287 0.278968 0.515028
169 6 0.609507 0.461496 0.513207
198 7 0.788197 0.583973 0.522314
287 10 0.587143 0.670485 0.50089
319 11 0.782516 0.678348 0.5229
348 12 0.958228 0.842959 0.50037
378 13 0.226299 0.96572 0.518256
438 15 0.696025 0.990312 0.500049
408 14 0.458465 0.0395273 0.546125
49 2 0.483801 0.157893 0.533637
80 3 0.772421 0.220699 0.539099
109 4 0.0734189 0.274996 0.537683
18 1 0.240756 0.25053 0.542414
140 5 0.271264 0.47135 0.527519
228 8 0.0549575 0.597348 0.526617
288 10 0.592147 0.674704 0.537477
258 9 0.274065 0.723501 0.530528
349 12 0.950478 0.845727 0.535485
379 13 0.263614 0.964173 0.542738
439 15 0.725742 0.962666 0.525457
469 16 0.984458 0.141696 0.551247
50 2 0.491541 0.172375 0.566733
81 3 0.796398 0.216059 0.571169
110 4 0.104769 0.254313 0.565476
19 1 0.229848 0.273763 0.574226
141 5 0.264354 0.43938 0.556745
170 6 0.60261 0.466773 0.551984
229 8 0.0590748 0.584111 0.560764
199 7 0.794697 0.598027 0.558003
320 11 0.768212 0.656882 0.554449
289 10 0.603325 0.688334 0.572093
259 9 0.256943 0.715428 0.562568
350 12 0.9528 0.841778 0.568917
380 13 0.301107 0.974182 0.559427
440 15 0.756025 0.98323 0.553686
409 14 0.46772 0.0310319 0.582517
470 16 0.98692 0.14766 0.585151
111 4 0.0844586 0.242032 0.595874
142 5 0.274101 0.427838 0.594377
171 6 0.584565 0.455608 0.584208
230 8 0.066371 0.569757 0.597974
200 7 0.792877 0.602676 0.592019
321 11 0.77069 0.653127 0.586477
260 9 0.223171 0.708381 0.589029
351 12 0.978787 0.859417 0.598106
381 13 0.289632 0.985158 0.593105
441 15 0.765732 0.989725 0.587803
410 14 0.468959 0.0345757 0.617661
442 15 0.778602 0.0154209 0.621173
471 16 0.980862 0.157663 0.619003
51 2 0.487142 0.180074 0.602564
82 3 0.80242 0.227059 0.609276
20 1 0.21817 0.284451 0.606837
172 6 0.564452 0.456464 0.62063
201 7 0.788512 0.587444 0.623863
322 11 0.763783 0.664368 0.624472
261 9 0.206614 0.709058 0.624924
290 10 0.592839 0.684101 0.607054
382 13 0.281473 0.00239177 0.629816
411 14 0.480838 0.0271956 0.64952
52 2 0.474345 0.194175 0.639282
112 4 0.088036 0.23126 0.63417
83 3 0.808442 0.238059 0.647383
21 1 0.194247 0.291274 0.636205
143 5 0.283848 0.416296 0.63201
231 8 0.0592288 0.557708 0.631522
291 10 0.58112 0.69734 0.636495
352 12 0.994519 0.856981 0.635569
383 13 0.273314 0.0196257 0.666526
443 15 0.791473 0.041117 0.654543
472 16 0.969561 0.144293 0.656105
113 4 0.0916134 0.220488 0.672465
22 1 0.209362 0.274953 0.671999
144 5 0.293595 0.404754 0.669642
173 6 0.544339 0.45732 0.657052
232 8 0.0632506 0.550006 0.670168
202 7 0.78117 0.568117 0.660131
323 11 0.756876 0.675609 0.662467
262 9 0.191866 0.698658 0.661895
292 10 0.564037 0.72157 0.66946
353 12 0.0102512 0.854545 0.673031
412 14 0.482926 0.0221102 0.688462
444 15 0.804343 0.0668131 0.687912
473 16 0.95826 0.130924 0.693207
53 2 0.461547 0.208275 0.675999
84 3 0.814464 0.249059 0.68549
174 6 0.524226 0.458176 0.693474
203 7 0.773829 0.54879 0.696398
263 9 0.177118 0.688258 0.698866
384 13 0.265156 0.0368597 0.703237
445 15 0.817214 0.0925092 0.721282
114 4 0.0951907 0.209716 0.71076
54 2 0.44875 0.222376 0.712716
23 1 0.224477 0.258632 0.707793
85 3 0.820486 0.260059 0.723597
145 5 0.303343 0.393212 0.707274
233 8 0.0672725 0.542303 0.708814
324 11 0.749968 0.68685 0.700462
293 10 0.546955 0.7458 0.702426
354 12 0.0259833 0.852109 0.710493
413 14 0.485013 0.0170248 0.727404
385 13 0.256997 0.0540936 0.739948
474 16 0.946959 0.117554 0.73031
115 4 0.0987681 0.198944 0.749055
24 1 0.239591 0.242311 0.743587
55 2 0.435953 0.236476 0.749434
146 5 0.31309 0.38167 0.744907
175 6 0.504114 0.459032 0.729896
234 8 0.0712944 0.534601 0.74746
204 7 0.766487 0.529463 0.732666
264 9 0.16237 0.677858 0.735837
325 11 0.743061 0.698091 0.738457
294 10 0.529872 0.77003 0.735391
355 12 0.0417154 0.849673 0.747956
414 14 0.487101 0.0119393 0.766346
475 16 0.935658 0.104184 0.767412
446 15 0.830084 0.118205 0.754652
86 3 0.826508 0.271059 0.761704
176 6 0.484001 0.459888 0.766317
205 7 0.759145 0.510136 0.768933
265 9 0.147621 0.667458 0.772808
295 10 0.51279 0.79426 0.768356
386 13 0.248838 0.0713276 0.776658
447 15 0.842954 0.143901 0.788021
116 4 0.102345 0.188172 0.787351
25 1 0.254706 0.22599 0.77938
56 2 0.423156 0.250577 0.786151
87 3 0.83253 0.282058 0.799811
147 5 0.322837 0.370128 0.782539
235 8 0.0753163 0.526899 0.786107
326 11 0.736154 0.709332 0.776452
356 12 0.0574474 0.847238 0.785418
415 14 0.489189 0.00685388 0.805287
387 13 0.24068 0.0885615 0.813369
476 16 0.924357 0.0908148 0.804514
448 15 0.855825 0.169597 0.821391
26 1 0.269821 0.209669 0.815174
57 2 0.410358 0.264678 0.822868
148 5 0.332584 0.358586 0.820172
177 6 0.463888 0.460745 0.802739
206 7 0.751804 0.49081 0.805201
236 8 0.0793381 0.519196 0.824753
266 9 0.132873 0.657058 0.809779
327 11 0.729247 0.720573 0.814447
296 10 0.495707 0.81849 0.801322
357 12 0.0731795 0.844802 0.822881
416 14 0.491277 0.00176843 0.844229
477 16 0.913056 0.0774452 0.841617
117 4 0.105923 0.1774 0.825646
88 3 0.838552 0.293058 0.837917
178 6 0.443775 0.461601 0.839161
207 7 0.744462 0.471483 0.841468
267 9 0.118125 0.646658 0.84675
297 10 0.478624 0.84272 0.834287
388 13 0.232521 0.105795 0.850079
118 4 0.1095 0.166628 0.863941
27 1 0.284936 0.193348 0.850968
449 15 0.868695 0.195294 0.854761
58 2 0.397561 0.278778 0.859585
149 5 0.342331 0.347044 0.857804
237 8 0.08336 0.511494 0.863399
328 11 0.72234 0.731814 0.852442
358 12 0.0889116 0.842366 0.860343
298 10 0.461542 0.86695 0.867252
478 16 0.901755 0.0640755 0.878719
389 13 0.224362 0.123029 0.88679
28 1 0.300051 0.177028 0.886762
450 15 0.881566 0.22099 0.888131
59 2 0.384764 0.292879 0.896303
89 3 0.844574 0.304058 0.876024
150 5 0.352078 0.335502 0.895437
179 6 0.423662 0.462457 0.875583
208 7 0.73712 0.452156 0.877736
268 9 0.103377 0.636258 0.883721
329 11 0.715432 0.743055 0.890437
359 12 0.104644 0.83993 0.897806
417 14 0.493364 0.996683 0.883171
479 16 0.890454 0.0507059 0.915821
390 13 0.216204 0.140263 0.9235
119 4 0.113078 0.155856 0.902237
29 1 0.315165 0.160707 0.922556
90 3 0.850596 0.315058 0.914131
180 6 0.403549 0.463313 0.912005
209 7 0.729779 0.432829 0.914003
238 8 0.0873819 0.503792 0.902045
269 9 0.0886287 0.625858 0.920692
299 10 0.444459 0.89118 0.900218
418 14 0.495452 0.991598 0.922113
120 4 0.116655 0.145084 0.940532
60 2 0.371967 0.306979 0.93302
239 8 0.0914038 0.49609 0.940692
330 11 0.708525 0.754296 0.928432
360 12 0.120376 0.837494 0.935268
300 10 0.427377 0.91541 0.933183
480 16 0.879153 0.0373362 0.952924
30 1 0.33028 0.144386 0.95835
210 7 0.722437 0.413502 0.950271
270 9 0.0738805 0.615458 0.957663
419 14 0.49754 0.986512 0.961055
240 8 0.0954256 0.488387 0.979338
420 14 0.499628 0.981427 0.999996
ITEM: TIMESTEP
20000
ITEM: NUMBER OF ATOMS
480
ITEM: BOX BOUNDS
0 20
0 20
-0.0001 27.8085
ITEM: ATOMS id type xs ys zs
451 16 0 0 3.59601e-06
361 13 0.25 0 3.59601e-06
391 14 0.5 0 3.59601e-06
421 15 0.75 0 3.59601e-06
32 2 0.500522 0.224445 0.0322408
91 4 0 0.25 3.59601e-06
1 1 0.25 0.25 3.59601e-06
31 2 0.5 0.25 3.59601e-06
61 3 0.75 0.25 3.59601e-06
122 5 0.216075 0.521752 0.0176837
211 8 0 0.5 3.59601e-06
121 5 0.25 0.5 3.59601e-06
151 6 0.5 0.5 3.59601e-06
181 7 0.75 0.5 3.59601e-06
212 8 0.019655 0.540889 0.0165088
182 7 0.749792 0.535905 0.0247696
331 12 0 0.75 3.59601e-06
241 9 0.25 0.75 3.59601e-06
272 10 0.485051 0.788224 0.0251222
271 10 0.5 0.75 3.59601e-06
301 11 0.75 0.75 3.59601e-06
392 14 0.492815 0.00791096 0.0372304
422 15 0.723156 0.00164291 0.0291824
452 16 0.00930994 0.00944614 0.0339161
2 1 0.241612 0.219251 0.0276699
62 3 0.73701 0.234218 0.0326164
92 4 0.00499494 0.225447 0.0296533
123 5 0.1906 0.521965 0.047301
152 6 0.504594 0.47971 0.0312093
213 8 0.0371134 0.575253 0.0406653
242 9 0.269211 0.724496 0.0240299
302 11 0.732283 0.740919 0.0318269
332 12 0.981065 0.765196 0.0266611
273 10 0.451334 0.768358 0.0439217
362 13 0.277319 0.995436 0.0285768
393 14 0.505772 -0.00206924 0.0722364
453 16 0.998128 0.00638202 0.0681976
33 2 0.488824 0.18949 0.0570295
63 3 0.734286 0.194503 0.0557257
93 4 0.0179377 0.235548 0.0638016
3 1 0.249441 0.207714 0.0621804
124 5 0.177907 0.516728 0.0801045
153 6 0.47595 0.463697 0.0629959
183 7 0.754425 0.552055 0.057515
214 8 0.0147374 0.596411 0.0687221
215 8 0.00986708 0.571522 0.0988248
243 9 0.263736 0.686591 0.0466446
303 11 0.737871 0.720646 0.0652851
333 12 0.979101 0.781904 0.0609052
363 13 0.292416 0.97911 0.0578707
423 15 0.699128 0.011394 0.0557414
454 16 0.976315 0.0100067 0.101105
394 14 0.511448 -0.000848552 0.109086
34 2 0.507284 0.179352 0.0889856
4 1 0.26498 0.201713 0.0956975
64 3 0.709873 0.162672 0.0761142
94 4 0.0264209 0.227396 0.0998717
154 6 0.460431 0.473151 0.0955984
184 7 0.757014 0.553481 0.0909013
244 9 0.286119 0.678706 0.078473
304 11 0.726685 0.704117 0.0986074
275 10 0.42494 0.754871 0.105682
274 10 0.427221 0.74967 0.0726643
334 12 0.9772 0.809466 0.0887469
364 13 0.30927 0.985406 0.091606
424 15 0.682829 0.986578 0.0836863
395 14 0.492384 0.00746933 0.141953
35 2 0.542971 0.16905 0.116139
65 3 0.676021 0.141317 0.100685
125 5 0.177559 0.4873 0.112606
185 7 0.748529 0.574048 0.122475
216 8 0.0101247 0.589819 0.13285
245 9 0.299418 0.696524 0.109841
335 12 0.962085 0.84634 0.109181
425 15 0.678433 0.983169 0.122342
455 16 0.95478 0.0189516 0.133012
36 2 0.572982 0.160046 0.141102
66 3 0.690804 0.105597 0.122558
5 1 0.270097 0.200579 0.134387