ITEM: TIMESTEP
0
ITEM: NUMBER OF ATOMS
480
ITEM: BOX BOUNDS
0 8
0 8
-0.0001 34.8001
ITEM: ATOMS id type xs ys zs
451 16 0 0 2.87355e-06
361 13 0.25 0 2.87355e-06
391 14 0.5 0 2.87355e-06
421 15 0.75 0 2.87355e-06
91 4 0 0.25 2.87355e-06
1 1 0.25 0.25 2.87355e-06
31 2 0.5 0.25 2.87355e-06
61 3 0.75 0.25 2.87355e-06
211 8 0 0.5 2.87355e-06
121 5 0.25 0.5 2.87355e-06
151 6 0.5 0.5 2.87355e-06
181 7 0.75 0.5 2.87355e-06
331 12 0 0.75 2.87355e-06
241 9 0.25 0.75 2.87355e-06
271 10 0.5 0.75 2.87355e-06
301 11 0.75 0.75 2.87355e-06
452 16 0 0 0.0344854
362 13 0.25 0 0.0344854
392 14 0.5 0 0.0344854
422 15 0.75 0 0.0344854
92 4 0 0.25 0.0344854
2 1 0.25 0.25 0.0344854
32 2 0.5 0.25 0.0344854
62 3 0.75 0.25 0.0344854
212 8 0 0.5 0.0344854
122 5 0.25 0.5 0.0344854
152 6 0.5 0.5 0.0344854
182 7 0.75 0.5 0.0344854
332 12 0 0.75 0.0344854
242 9 0.25 0.75 0.0344854
272 10 0.5 0.75 0.0344854
302 11 0.75 0.75 0.0344854
453 16 0 0 0.068968
363 13 0.25 0 0.068968
393 14 0.5 0 0.068968
423 15 0.75 0 0.068968
93 4 0 0.25 0.068968
3 1 0.25 0.25 0.068968
33 2 0.5 0.25 0.068968
63 3 0.75 0.25 0.068968
213 8 0 0.5 0.068968
123 5 0.25 0.5 0.068968
153 6 0.5 0.5 0.068968
183 7 0.75 0.5 0.068968
333 12 0 0.75 0.068968
243 9 0.25 0.75 0.068968
273 10 0.5 0.75 0.068968
303 11 0.75 0.75 0.068968
454 16 0 0 0.103451
364 13 0.25 0 0.103451
394 14 0.5 0 0.103451
424 15 0.75 0 0.103451
94 4 0 0.25 0.103451
4 1 0.25 0.25 0.103451
34 2 0.5 0.25 0.103451
64 3 0.75 0.25 0.103451
214 8 0 0.5 0.103451
124 5 0.25 0.5 0.103451
154 6 0.5 0.5 0.103451
184 7 0.75 0.5 0.103451
334 12 0 0.75 0.103451
244 9 0.25 0.75 0.103451
274 10 0.5 0.75 0.103451
304 11 0.75 0.75 0.103451
455 16 0 0 0.137933
365 13 0.25 0 0.137933
395 14 0.5 0 0.137933
425 15 0.75 0 0.137933
95 4 0 0.25 0.137933
5 1 0.25 0.25 0.137933
35 2 0.5 0.25 0.137933
65 3 0.75 0.25 0.137933
215 8 0 0.5 0.137933
125 5 0.25 0.5 0.137933
155 6 0.5 0.5 0.137933
185 7 0.75 0.5 0.137933
335 12 0 0.75 0.137933
245 9 0.25 0.75 0.137933
275 10 0.5 0.75 0.137933
305 11 0.75 0.75 0.137933
456 16 0 0 0.172416
366 13 0.25 0 0.172416
396 14 0.5 0 0.172416
426 15 0.75 0 0.172416
96 4 0 0.25 0.172416
6 1 0.25 0.25 0.172416
36 2 0.5 0.25 0.172416
66 3 0.75 0.25 0.172416
216 8 0 0.5 0.172416
126 5 0.25 0.5 0.172416
156 6 0.5 0.5 0.172416
186 7 0.75 0.5 0.172416
336 12 0 0.75 0.172416
246 9 0.25 0.75 0.172416
276 10 0.5 0.75 0.172416
306 11 0.75 0.75 0.172416
457 16 0 0 0.206898
367 13 0.25 0 0.206898
397 14 0.5 0 0.206898
427 15 0.75 0 0.206898
97 4 0 0.25 0.206898
7 1 0.25 0.25 0.206898
37 2 0.5 0.25 0.206898
67 3 0.75 0.25 0.206898
217 8 0 0.5 0.206898
127 5 0.25 0.5 0.206898
157 6 0.5 0.5 0.206898
187 7 0.75 0.5 0.206898
337 12 0 0.75 0.206898
247 9 0.25 0.75 0.206898
277 10 0.5 0.75 0.206898
307 11 0.75 0.75 0.206898
458 16 0 0 0.241381
368 13 0.25 0 0.241381
398 14 0.5 0 0.241381
428 15 0.75 0 0.241381
98 4 0 0.25 0.241381
8 1 0.25 0.25 0.241381
38 2 0.5 0.25 0.241381
68 3 0.75 0.25 0.241381
218 8 0 0.5 0.241381
128 5 0.25 0.5 0.241381
158 6 0.5 0.5 0.241381
188 7 0.75 0.5 0.241381
338 12 0 0.75 0.241381
248 9 0.25 0.75 0.241381
278 10 0.5 0.75 0.241381
308 11 0.75 0.75 0.241381
459 16 0 0 0.275863
369 13 0.25 0 0.275863
399 14 0.5 0 0.275863
429 15 0.75 0 0.275863
99 4 0 0.25 0.275863
9 1 0.25 0.25 0.275863
39 2 0.5 0.25 0.275863
69 3 0.75 0.25 0.275863
219 8 0 0.5 0.275863
129 5 0.25 0.5 0.275863
159 6 0.5 0.5 0.275863
189 7 0.75 0.5 0.275863
339 12 0 0.75 0.275863
249 9 0.25 0.75 0.275863
279 10 0.5 0.75 0.275863
309 11 0.75 0.75 0.275863
460 16 0 0 0.310346
370 13 0.25 0 0.310346
400 14 0.5 0 0.310346
430 15 0.75 0 0.310346
100 4 0 0.25 0.310346
10 1 0.25 0.25 0.310346
40 2 0.5 0.25 0.310346
70 3 0.75 0.25 0.310346
220 8 0 0.5 0.310346
130 5 0.25 0.5 0.310346
160 6 0.5 0.5 0.310346
190 7 0.75 0.5 0.310346
340 12 0 0.75 0.310346
250 9 0.25 0.75 0.310346
280 10 0.5 0.75 0.310346
310 11 0.75 0.75 0.310346
461 16 0 0 0.344828
371 13 0.25 0 0.344828
401 14 0.5 0 0.344828
431 15 0.75 0 0.344828
101 4 0 0.25 0.344828
11 1 0.25 0.25 0.344828
41 2 0.5 0.25 0.344828
71 3 0.75 0.25 0.344828
221 8 0 0.5 0.344828
131 5 0.25 0.5 0.344828
161 6 0.5 0.5 0.344828
191 7 0.75 0.5 0.344828
341 12 0 0.75 0.344828
251 9 0.25 0.75 0.344828
281 10 0.5 0.75 0.344828
311 11 0.75 0.75 0.344828
462 16 0 0 0.379311
372 13 0.25 0 0.379311
402 14 0.5 0 0.379311
432 15 0.75 0 0.379311
102 4 0 0.25 0.379311
12 1 0.25 0.25 0.379311
42 2 0.5 0.25 0.379311
72 3 0.75 0.25 0.379311
222 8 0 0.5 0.379311
132 5 0.25 0.5 0.379311
162 6 0.5 0.5 0.379311
192 7 0.75 0.5 0.379311
342 12 0 0.75 0.379311
252 9 0.25 0.75 0.379311
282 10 0.5 0.75 0.379311
312 11 0.75 0.75 0.379311
463 16 0 0 0.413794
373 13 0.25 0 0.413794
403 14 0.5 0 0.413794
433 15 0.75 0 0.413794
103 4 0 0.25 0.413794
13 1 0.25 0.25 0.413794
43 2 0.5 0.25 0.413794
73 3 0.75 0.25 0.413794
223 8 0 0.5 0.413794
133 5 0.25 0.5 0.413794
163 6 0.5 0.5 0.413794
193 7 0.75 0.5 0.413794
343 12 0 0.75 0.413794
253 9 0.25 0.75 0.413794
283 10 0.5 0.75 0.413794
313 11 0.75 0.75 0.413794
464 16 0 0 0.448276
374 13 0.25 0 0.448276
404 14 0.5 0 0.448276
434 15 0.75 0 0.448276
104 4 0 0.25 0.448276
14 1 0.25 0.25 0.448276
44 2 0.5 0.25 0.448276
74 3 0.75 0.25 0.448276
224 8 0 0.5 0.448276
134 5 0.25 0.5 0.448276
164 6 0.5 0.5 0.448276
194 7 0.75 0.5 0.448276
344 12 0 0.75 0.448276
254 9 0.25 0.75 0.448276
284 10 0.5 0.75 0.448276
314 11 0.75 0.75 0.448276
465 16 0 0 0.482759
375 13 0.25 0 0.482759
405 14 0.5 0 0.482759
435 15 0.75 0 0.482759
105 4 0 0.25 0.482759
15 1 0.25 0.25 0.482759
45 2 0.5 0.25 0.482759
75 3 0.75 0.25 0.482759
225 8 0 0.5 0.482759
135 5 0.25 0.5 0.482759
165 6 0.5 0.5 0.482759
195 7 0.75 0.5 0.482759
345 12 0 0.75 0.482759
255 9 0.25 0.75 0.482759
285 10 0.5 0.75 0.482759
315 11 0.75 0.75 0.482759
466 16 0 0 0.517241
376 13 0.25 0 0.517241
406 14 0.5 0 0.517241
436 15 0.75 0 0.517241
106 4 0 0.25 0.517241
16 1 0.25 0.25 0.517241
46 2 0.5 0.25 0.517241
76 3 0.75 0.25 0.517241
226 8 0 0.5 0.517241
136 5 0.25 0.5 0.517241
166 6 0.5 0.5 0.517241
196 7 0.75 0.5 0.517241
346 12 0 0.75 0.517241
256 9 0.25 0.75 0.517241
286 10 0.5 0.75 0.517241
316 11 0.75 0.75 0.517241
467 16 0 0 0.551724
377 13 0.25 0 0.551724
407 14 0.5 0 0.551724
437 15 0.75 0 0.551724
107 4 0 0.25 0.551724
17 1 0.25 0.25 0.551724
47 2 0.5 0.25 0.551724
77 3 0.75 0.25 0.551724
227 8 0 0.5 0.551724
137 5 0.25 0.5 0.551724
167 6 0.5 0.5 0.551724
197 7 0.75 0.5 0.551724
347 12 0 0.75 0.551724
257 9 0.25 0.75 0.551724
287 10 0.5 0.75 0.551724
317 11 0.75 0.75 0.551724
468 16 0 0 0.586206
378 13 0.25 0 0.586206
408 14 0.5 0 0.586206
438 15 0.75 0 0.586206
108 4 0 0.25 0.586206
18 1 0.25 0.25 0.586206
48 2 0.5 0.25 0.586206
78 3 0.75 0.25 0.586206
228 8 0 0.5 0.586206
138 5 0.25 0.5 0.586206
168 6 0.5 0.5 0.586206
198 7 0.75 0.5 0.586206
348 12 0 0.75 0.586206
258 9 0.25 0.75 0.586206
288 10 0.5 0.75 0.586206
318 11 0.75 0.75 0.586206
469 16 0 0 0.620689
379 13 0.25 0 0.620689
409 14 0.5 0 0.620689
439 15 0.75 0 0.620689
109 4 0 0.25 0.620689
19 1 0.25 0.25 0.620689
49 2 0.5 0.25 0.620689
79 3 0.75 0.25 0.620689
229 8 0 0.5 0.620689
139 5 0.25 0.5 0.620689
169 6 0.5 0.5 0.620689
199 7 0.75 0.5 0.620689
349 12 0 0.75 0.620689
259 9 0.25 0.75 0.620689
289 10 0.5 0.75 0.620689
319 11 0.75 0.75 0.620689
470 16 0 0 0.655172
380 13 0.25 0 0.655172
410 14 0.5 0 0.655172
440 15 0.75 0 0.655172
110 4 0 0.25 0.655172
20 1 0.25 0.25 0.655172
50 2 0.5 0.25 0.655172
80 3 0.75 0.25 0.655172
230 8 0 0.5 0.655172
140 5 0.25 0.5 0.655172
170 6 0.5 0.5 0.655172
200 7 0.75 0.5 0.655172
350 12 0 0.75 0.655172
260 9 0.25 0.75 0.655172
290 10 0.5 0.75 0.655172
320 11 0.75 0.75 0.655172
471 16 0 0 0.689654
381 13 0.25 0 0.689654
411 14 0.5 0 0.689654
441 15 0.75 0 0.689654
111 4 0 0.25 0.689654
21 1 0.25 0.25 0.689654
51 2 0.5 0.25 0.689654
81 3 0.75 0.25 0.689654
231 8 0 0.5 0.689654
141 5 0.25 0.5 0.689654
171 6 0.5 0.5 0.689654
201 7 0.75 0.5 0.689654
351 12 0 0.75 0.689654
261 9 0.25 0.75 0.689654
291 10 0.5 0.75 0.689654
321 11 0.75 0.75 0.689654
472 16 0 0 0.724137
382 13 0.25 0 0.724137
412 14 0.5 0 0.724137
442 15 0.75 0 0.724137
112 4 0 0.25 0.724137
22 1 0.25 0.25 0.724137
52 2 0.5 0.25 0.724137
82 3 0.75 0.25 0.724137
232 8 0 0.5 0.724137
142 5 0.25 0.5 0.724137
172 6 0.5 0.5 0.724137
202 7 0.75 0.5 0.724137
352 12 0 0.75 0.724137
262 9 0.25 0.75 0.724137
292 10 0.5 0.75 0.724137
322 11 0.75 0.75 0.724137
473 16 0 0 0.758619
383 13 0.25 0 0.758619
413 14 0.5 0 0.758619
443 15 0.75 0 0.758619
113 4 0 0.25 0.758619
23 1 0.25 0.25 0.758619
53 2 0.5 0.25 0.758619
83 3 0.75 0.25 0.758619
233 8 0 0.5 0.758619
143 5 0.25 0.5 0.758619
173 6 0.5 0.5 0.758619
203 7 0.75 0.5 0.758619
353 12 0 0.75 0.758619
263 9 0.25 0.75 0.758619
293 10 0.5 0.75 0.758619
323 11 0.75 0.75 0.758619
474 16 0 0 0.793102
384 13 0.25 0 0.793102
414 14 0.5 0 0.793102
444 15 0.75 0 0.793102
114 4 0 0.25 0.793102
24 1 0.25 0.25 0.793102
54 2 0.5 0.25 0.793102
84 3 0.75 0.25 0.793102
234 8 0 0.5 0.793102
144 5 0.25 0.5 0.793102
174 6 0.5 0.5 0.793102
204 7 0.75 0.5 0.793102
354 12 0 0.75 0.793102
264 9 0.25 0.75 0.793102
294 10 0.5 0.75 0.793102
324 11 0.75 0.75 0.793102
475 16 0 0 0.827584
385 13 0.25 0 0.827584
415 14 0.5 0 0.827584
445 15 0.75 0 0.827584
115 4 0 0.25 0.827584
25 1 0.25 0.25 0.827584
55 2 0.5 0.25 0.827584
85 3 0.75 0.25 0.827584
235 8 0 0.5 0.827584
145 5 0.25 0.5 0.827584
175 6 0.5 0.5 0.827584
205 7 0.75 0.5 0.827584
355 12 0 0.75 0.827584
265 9 0.25 0.75 0.827584
295 10 0.5 0.75 0.827584
325 11 0.75 0.75 0.827584
476 16 0 0 0.862067
386 13 0.25 0 0.862067
416 14 0.5 0 0.862067
446 15 0.75 0 0.862067
116 4 0 0.25 0.862067
26 1 0.25 0.25 0.862067
56 2 0.5 0.25 0.862067
86 3 0.75 0.25 0.862067
236 8 0 0.5 0.862067
146 5 0.25 0.5 0.862067
176 6 0.5 0.5 0.862067
206 7 0.75 0.5 0.862067
356 12 0 0.75 0.862067
266 9 0.25 0.75 0.862067
296 10 0.5 0.75 0.862067
326 11 0.75 0.75 0.862067
477 16 0 0 0.896549
387 13 0.25 0 0.896549
417 14 0.5 0 0.896549
447 15 0.75 0 0.896549
117 4 0 0.25 0.896549
27 1 0.25 0.25 0.896549
57 2 0.5 0.25 0.896549
87 3 0.75 0.25 0.896549
237 8 0 0.5 0.896549
147 5 0.25 0.5 0.896549
177 6 0.5 0.5 0.896549
207 7 0.75 0.5 0.896549
357 12 0 0.75 0.896549
267 9 0.25 0.75 0.896549
297 10 0.5 0.75 0.896549
327 11 0.75 0.75 0.896549
478 16 0 0 0.931032
388 13 0.25 0 0.931032
418 14 0.5 0 0.931032
448 15 0.75 0 0.931032
118 4 0 0.25 0.931032
28 1 0.25 0.25 0.931032
58 2 0.5 0.25 0.931032
88 3 0.75 0.25 0.931032
238 8 0 0.5 0.931032
148 5 0.25 0.5 0.931032
178 6 0.5 0.5 0.931032
208 7 0.75 0.5 0.931032
358 12 0 0.75 0.931032
268 9 0.25 0.75 0.931032
298 10 0.5 0.75 0.931032
328 11 0.75 0.75 0.931032
479 16 0 0 0.965515
389 13 0.25 0 0.965515
419 14 0.5 0 0.965515
449 15 0.75 0 0.965515
119 4 0 0.25 0.965515
29 1 0.25 0.25 0.965515
59 2 0.5 0.25 0.965515
89 3 0.75 0.25 0.965515
239 8 0 0.5 0.965515
149 5 0.25 0.5 0.965515
179 6 0.5 0.5 0.965515
209 7 0.75 0.5 0.965515
359 12 0 0.75 0.965515
269 9 0.25 0.75 0.965515
299 10 0.5 0.75 0.965515
329 11 0.75 0.75 0.965515
480 16 0 0 0.999997
390 13 0.25 0 0.999997
420 14 0.5 0 0.999997
450 15 0.75 0 0.999997
120 4 0 0.25 0.999997
30 1 0.25 0.25 0.999997
60 2 0.5 0.25 0.999997
90 3 0.75 0.25 0.999997
240 8 0 0.5 0.999997
150 5 0.25 0.5 0.999997
180 6 0.5 0.5 0.999997
210 7 0.75 0.5 0.999997
360 12 0 0.75 0.999997
270 9 0.25 0.75 0.999997
300 10 0.5 0.75 0.999997
330 11 0.75 0.75 0.999997
ITEM: TIMESTEP
50000
ITEM: NUMBER OF ATOMS
480
ITEM: BOX BOUNDS
0 8
0 8
-0.0001 27.3003
ITEM: ATOMS id type xs ys zs
451 16 0 0 3.66295e-06
361 13 0.25 0 3.66295e-06
391 14 0.5 0 3.66295e-06
421 15 0.75 0 3.66295e-06
452 16 0.0218469 0.0147742 0.0355632
91 4 0 0.25 3.66295e-06
1 1 0.25 0.25 3.66295e-06
31 2 0.5 0.25 3.66295e-06
61 3 0.75 0.25 3.66295e-06
212 8 0.904133 0.473593 0.0183271
211 8 0 0.5 3.66295e-06
121 5 0.25 0.5 3.66295e-06
151 6 0.5 0.5 3.66295e-06
181 7 0.75 0.5 3.66295e-06
122 5 0.171072 0.549972 0.0204361
331 12 0 0.75 3.66295e-06
241 9 0.25 0.75 3.66295e-06
271 10 0.5 0.75 3.66295e-06
301 11 0.75 0.75 3.66295e-06
302 11 0.69911 0.768509 0.0307387
362 13 0.22778 0.98806 0.0364343
422 15 0.777308 0.067324 0.0291817
453 16 0.00387156 0.0796802 0.0671267
2 1 0.247707 0.250974 0.0344256
32 2 0.502879 0.216552 0.0364098
62 3 0.66782 0.20601 0.0246301
92 4 0.966948 0.278211 0.0348179
152 6 0.570389 0.524271 0.0263319
182 7 0.794233 0.535868 0.0342234
123 5 0.0786997 0.609938 0.03568
272 10 0.457039 0.672821 0.0265548
332 12 0.0352782 0.812595 0.0321234
242 9 0.225946 0.769025 0.0351012
392 14 0.498338 0.98005 0.0353107
363 13 0.274507 0.997258 0.0688871
423 15 0.827173 0.121103 0.0604811
454 16 0.0131213 0.152604 0.0967375
3 1 0.237996 0.289819 0.0711415
33 2 0.477696 0.215758 0.0726117
63 3 0.631872 0.168915 0.0552218
93 4 0.994666 0.317652 0.0691164
213 8 0.87715 0.435258 0.0504546
153 6 0.62406 0.53302 0.0565902
183 7 0.824561 0.57169 0.0663468
273 10 0.407193 0.61314 0.054839
124 5 0.996017 0.698427 0.0481288
243 9 0.214528 0.763671 0.0721699
303 11 0.654338 0.775507 0.0636917
333 12 0.0595831 0.876536 0.0594552
393 14 0.488502 0.953437 0.0746968
364 13 0.272905 0.0149255 0.104367
424 15 0.833277 0.158035 0.0922499
34 2 0.463769 0.177989 0.107291
94 4 0.0294873 0.340709 0.102113
4 1 0.234787 0.317454 0.105593
64 3 0.605205 0.166568 0.0905279
214 8 0.809677 0.407917 0.0806919
154 6 0.688601 0.532843 0.0851805
184 7 0.840434 0.557012 0.105482
274 10 0.371748 0.596918 0.0887323
125 5 0.921894 0.763647 0.0731246
244 9 0.223271 0.764724 0.107217
304 11 0.648069 0.823772 0.0952231
334 12 0.0607854 0.902899 0.093368
394 14 0.522771 0.943988 0.108517
35 2 0.466333 0.156597 0.143465
425 15 0.843011 0.206378 0.124559
455 16 0.0217778 0.206343 0.129209
95 4 0.0287968 0.383844 0.135903
5 1 0.213293 0.354672 0.138412
65 3 0.613654 0.17947 0.126261
215 8 0.772759 0.408127 0.117996
155 6 0.703222 0.522088 0.121283
185 7 0.868725 0.555262 0.141383
275 10 0.381075 0.61182 0.123066
305 11 0.682088 0.852754 0.129673
126 5 0.898386 0.787358 0.107054
335 12 0.041406 0.869767 0.126618
395 14 0.527111 0.941614 0.142872
365 13 0.272598 0.0438991 0.14093
456 16 0.966287 0.170098 0.159708
66 3 0.595844 0.218081 0.15927
216 8 0.721238 0.4009 0.150476
156 6 0.697632 0.553113 0.158141
276 10 0.399689 0.661261 0.152355
245 9 0.21649 0.752639 0.14938
127 5 0.885855 0.745723 0.144506
366 13 0.264134 0.097457 0.17253
457 16 0.93068 0.112923 0.192132
36 2 0.474407 0.162774 0.179969
426 15 0.838011 0.240862 0.158878
96 4 0.0308468 0.406154 0.169925
217 8 0.690555 0.348536 0.182556
6 1 0.194456 0.407998 0.174044
67 3 0.560747 0.27842 0.188713
186 7 0.889264 0.540057 0.175502
157 6 0.658255 0.533056 0.190243
277 10 0.446191 0.701718 0.181669
306 11 0.695556 0.83463 0.165787
128 5 0.928492 0.733953 0.179151
336 12 0.0177411 0.846434 0.162304
246 9 0.1985 0.794465 0.183689
396 14 0.533295 0.928761 0.180565
367 13 0.29591 0.149192 0.203849
37 2 0.49701 0.179775 0.219596
218 8 0.663117 0.326729 0.215589
97 4 0.0426454 0.394222 0.208024
427 15 0.862327 0.270239 0.193444
7 1 0.212818 0.440037 0.207575
187 7 0.902575 0.517054 0.211246
158 6 0.598335 0.521127 0.220546
307 11 0.745033 0.803474 0.200109
337 12 0.99145 0.830576 0.19803
247 9 0.181268 0.795982 0.218301
397 14 0.523929 0.915817 0.215924
338 12 0.00359929 0.811538 0.23481
458 16 0.903705 0.094317 0.229274
368 13 0.315469 0.218736 0.239138
98 4 0.0774076 0.358701 0.239984
68 3 0.515175 0.331827 0.221276
428 15 0.892623 0.296005 0.225583
8 1 0.271971 0.446965 0.241001
129 5 0.951396 0.706123 0.214041
159 6 0.502993 0.521149 0.243869
278 10 0.439301 0.707847 0.214961
130 5 0.993639 0.646738 0.245863
308 11 0.767047 0.760698 0.232128
188 7 0.890991 0.501407 0.248852
399 14 0.444797 0.949711 0.279144
39 2 0.569437 0.127237 0.287448
369 13 0.326042 0.288603 0.268624
45 2 0.698359 0.926038 0.463198
219 8 0.643027 0.287352 0.250574
99 4 0.0672704 0.332794 0.276337
69 3 0.500045 0.349874 0.257563
429 15 0.918239 0.316647 0.26106
9 1 0.295097 0.445193 0.275775
189 7 0.848124 0.523715 0.282333
226 8 0.685307 0.270187 0.493966
309 11 0.791092 0.737965 0.272365
460 16 0.889956 0.141418 0.294887
370 13 0.326463 0.294602 0.305278
220 8 0.648749 0.265943 0.288675
70 3 0.491763 0.364085 0.293285
430 15 0.898611 0.363472 0.292088
10 1 0.279649 0.493047 0.307568
160 6 0.434213 0.534122 0.271342
131 5 0.057163 0.581196 0.270222
280 10 0.521322 0.71903 0.283715
249 9 0.235389 0.782918 0.292726
339 12 0.00150551 0.76359 0.268194
400 14 0.393409 0.996871 0.30973
40 2 0.615399 0.0829118 0.315644
461 16 0.920227 0.108206 0.328906
100 4 0.0469824 0.318047 0.311452
71 3 0.493545 0.353364 0.327862
431 15 0.868527 0.370653 0.324976
190 7 0.791863 0.522154 0.314707
132 5 0.132652 0.582785 0.299268
161 6 0.412897 0.520233 0.302968
281 10 0.580903 0.760734 0.313464
310 11 0.821063 0.717241 0.305014
340 12 0.986797 0.716801 0.301772
250 9 0.285885 0.779714 0.323914
401 14 0.317687 0.0346438 0.336297
462 16 0.900522 0.0844319 0.362593
221 8 0.63579 0.240446 0.324979
101 4 0.0487563 0.329471 0.346385
371 13 0.337275 0.292554 0.342098
11 1 0.265157 0.514144 0.342568
191 7 0.755721 0.542954 0.349225
133 5 0.153547 0.590681 0.335146
162 6 0.389584 0.549157 0.33726
341 12 0.990771 0.646376 0.330626
282 10 0.578336 0.822377 0.344945
311 11 0.851408 0.702104 0.340473
251 9 0.361298 0.825189 0.350366
402 14 0.216827 0.013432 0.357717
41 2 0.654966 0.993633 0.339294
222 8 0.644933 0.200308 0.359089
102 4 0.0412452 0.352213 0.381793
372 13 0.332721 0.260113 0.377095
72 3 0.532296 0.368019 0.361347
432 15 0.839847 0.399149 0.361647
12 1 0.247361 0.482354 0.377754
342 12 0.987639 0.620595 0.363871
134 5 0.174384 0.596334 0.369911
163 6 0.394093 0.568748 0.373156
192 7 0.753501 0.565484 0.382911
283 10 0.546383 0.82746 0.376843
312 11 0.845556 0.650484 0.377243
403 14 0.159431 0.950184 0.382037
42 2 0.732368 0.93684 0.363412
252 9 0.371915 0.885624 0.379052
463 16 0.910889 0.0184162 0.393709
223 8 0.629254 0.217104 0.39195
373 13 0.312734 0.287623 0.412543
13 1 0.236834 0.42464 0.408943
73 3 0.594635 0.378473 0.39052
433 15 0.814308 0.394985 0.400782
164 6 0.396849 0.579238 0.410189
343 12 0.0125516 0.584061 0.395412
135 5 0.204056 0.601758 0.406372
193 7 0.762557 0.553974 0.419486
313 11 0.847142 0.653616 0.413198
404 14 0.0758881 0.90221 0.404159
43 2 0.762526 0.92213 0.396107
374 13 0.320933 0.30649 0.45025
224 8 0.658825 0.241711 0.425516
103 4 0.00285601 0.309757 0.415381
434 15 0.802646 0.354484 0.436436
344 12 0.0814604 0.522117 0.420553
74 3 0.591756 0.45348 0.418958
194 7 0.737139 0.574883 0.453742
284 10 0.512879 0.786383 0.409588
44 2 0.74123 0.934893 0.433249
253 9 0.353594 0.920278 0.413536
464 16 0.873907 0.963552 0.423078
225 8 0.674219 0.239569 0.460246
104 4 0.98058 0.242224 0.448564
435 15 0.81058 0.295197 0.465784
14 1 0.211534 0.379027 0.440478
165 6 0.389692 0.579389 0.444889
75 3 0.568918 0.526697 0.453896
136 5 0.240152 0.585569 0.442307
314 11 0.831212 0.684193 0.450018
285 10 0.510329 0.743429 0.442496
405 14 0.013992 0.852467 0.432609
465 16 0.846795 0.944715 0.458954
254 9 0.336428 0.911511 0.451656
375 13 0.37168 0.33811 0.483635
459 16 0.876761 0.12022 0.262218
105 4 0.993408 0.21062 0.480678
255 9 0.301108 0.910019 0.488326
15 1 0.191548 0.345611 0.475673
345 12 0.107785 0.493342 0.454251
166 6 0.411429 0.556615 0.478169
195 7 0.728214 0.587053 0.49244
137 5 0.247351 0.588012 0.478798
466 16 0.858607 0.908451 0.496079
315 11 0.766609 0.705267 0.481419
286 10 0.474503 0.726594 0.478311
406 14 0.00906269 0.821509 0.465686
46 2 0.644915 0.928275 0.492706
76 3 0.566063 0.579549 0.486334
436 15 0.840179 0.236019 0.49654
346 12 0.115048 0.487921 0.489043
38 2 0.550568 0.174801 0.253226
248 9 0.204861 0.789686 0.2563
279 10 0.457784 0.719427 0.254914
407 14 0.01138 0.869487 0.499125
398 14 0.513666 0.952236 0.251619
376 13 0.416612 0.33268 0.518274
106 4 0.992845 0.188192 0.516675
16 1 0.20107 0.324214 0.510474
175 6 0.813523 0.60101 0.742137
167 6 0.38825 0.529844 0.510793
196 7 0.754762 0.561595 0.524916
138 5 0.247315 0.621914 0.510547
77 3 0.566198 0.646992 0.517039
316 11 0.717891 0.70152 0.512304
287 10 0.448249 0.675096 0.509855
467 16 0.839079 0.859192 0.529344
256 9 0.26601 0.889237 0.520457
145 5 0.18076 0.756866 0.743759
84 3 0.523459 0.647967 0.744111
438 15 0.758744 0.150618 0.562191
107 4 0.970678 0.17348 0.551539
377 13 0.418481 0.317757 0.555642
437 15 0.81866 0.189374 0.529862
17 1 0.187371 0.295669 0.542104
227 8 0.694373 0.262355 0.528249
347 12 0.100354 0.526012 0.522611
168 6 0.375266 0.488798 0.542588
197 7 0.784418 0.513666 0.556328
139 5 0.287523 0.65053 0.543893
288 10 0.468572 0.631196 0.546021
78 3 0.557871 0.726024 0.543785
317 11 0.696162 0.699572 0.547843
468 16 0.823212 0.798939 0.560156
257 9 0.256905 0.877082 0.553859
408 14 0.0179325 0.87762 0.53454
47 2 0.595626 0.946445 0.524179
409 14 0.0497012 0.910055 0.568876
48 2 0.52156 0.977185 0.553483
108 4 0.934952 0.128994 0.584769
378 13 0.401284 0.307175 0.592612
18 1 0.186362 0.305622 0.577435
228 8 0.712006 0.277618 0.561763
348 12 0.0769598 0.54394 0.559771
169 6 0.368648 0.496186 0.580314
289 10 0.489766 0.560895 0.574436
79 3 0.520509 0.752139 0.576852
318 11 0.663981 0.732657 0.585594
410 14 0.0946171 0.9745 0.598242
439 15 0.71547 0.105381 0.591146
109 4 0.942201 0.14012 0.622838
19 1 0.196692 0.356293 0.611039
229 8 0.690803 0.275895 0.597608
198 7 0.805134 0.460935 0.588731
290 10 0.548754 0.526173 0.606486
349 12 0.0577334 0.581786 0.592488
140 5 0.309984 0.680582 0.580728
80 3 0.483832 0.762282 0.612907
319 11 0.642656 0.744167 0.618935
469 16 0.844667 0.761552 0.593846
258 9 0.252855 0.866717 0.591999
49 2 0.492339 0.0212397 0.584346
440 15 0.678501 0.0726118 0.621155
411 14 0.113386 0.0372924 0.629769
379 13 0.370575 0.283915 0.626919
20 1 0.228268 0.389832 0.642545
230 8 0.724773 0.253506 0.631111
199 7 0.826822 0.483116 0.629737
170 6 0.404037 0.523571 0.614424
291 10 0.572881 0.492161 0.643991
141 5 0.294815 0.682448 0.614976
470 16 0.866815 0.770198 0.628679
259 9 0.244161 0.843038 0.629614
50 2 0.500478 0.0548956 0.619546
231 8 0.79074 0.19751 0.654461
110 4 0.942881 0.163259 0.658859
380 13 0.368228 0.28213 0.661713
292 10 0.594086 0.420424 0.679573
171 6 0.446334 0.556701 0.646482
350 12 0.078501 0.600585 0.625368
142 5 0.291677 0.682377 0.649354
81 3 0.473927 0.762933 0.648082
320 11 0.622402 0.756199 0.653818
260 9 0.257104 0.82528 0.664594
471 16 0.88211 0.788842 0.6644
441 15 0.695323 0.0315313 0.654812
51 2 0.521367 0.0799956 0.656502
111 4 0.98262 0.179829 0.691236
412 14 0.126584 0.0878571 0.661139
232 8 0.835291 0.142037 0.684391
381 13 0.334538 0.275968 0.694946
21 1 0.259439 0.446533 0.677026
293 10 0.634073 0.360557 0.710186
200 7 0.83705 0.421697 0.660123
172 6 0.523814 0.60107 0.671771
351 12 0.0849259 0.611504 0.659718
82 3 0.467238 0.761581 0.685339
321 11 0.600275 0.789511 0.684446
442 15 0.704847 0.9632 0.683674
413 14 0.113796 0.0926324 0.697025
233 8 0.888945 0.0818407 0.711989
52 2 0.552183 0.101092 0.690426
112 4 0.0697058 0.197698 0.713361
294 10 0.691176 0.322959 0.738323
22 1 0.27907 0.490999 0.707206
201 7 0.849617 0.432912 0.695134
352 12 0.125381 0.655769 0.692878
173 6 0.615595 0.609845 0.693105
143 5 0.275217 0.710911 0.683133
83 3 0.498322 0.724348 0.718679
322 11 0.637913 0.812044 0.719934
472 16 0.881544 0.783704 0.698195
261 9 0.28557 0.858605 0.697886
443 15 0.727249 0.944191 0.717738
414 14 0.075972 0.0808629 0.731856
234 8 0.912912 0.0174598 0.740406
113 4 0.138196 0.262351 0.73647
382 13 0.318933 0.285419 0.729577
53 2 0.523522 0.113862 0.725578
202 7 0.834435 0.434891 0.729865
23 1 0.34263 0.49551 0.74012
353 12 0.142142 0.607246 0.727625
174 6 0.718208 0.593828 0.713421
144 5 0.250019 0.749133 0.715623
444 15 0.756504 0.932837 0.749804
473 16 0.84858 0.793533 0.729909
262 9 0.317636 0.895838 0.730809
415 14 0.0596461 0.0318441 0.764668
383 13 0.29463 0.273172 0.766296
54 2 0.540857 0.140242 0.761522
114 4 0.17997 0.314722 0.766008
295 10 0.745774 0.305467 0.767173
203 7 0.820959 0.469288 0.765864
354 12 0.16826 0.61013 0.763097
24 1 0.352765 0.523051 0.77304
86 3 0.499977 0.475116 0.792841
85 3 0.543495 0.573734 0.774022
330 11 0.727536 0.864452 0.993027
323 11 0.657617 0.850217 0.751595
263 9 0.305348 0.881524 0.766461
474 16 0.833355 0.82176 0.763745
270 9 0.348134 0.891702 1.00035
235 8 0.953179 0.924867 0.763478
416 14 0.0967142 0.0283334 0.801323
90 3 0.389311 0.0178822 0.781135
89 3 0.438696 0.128646 0.796662
55 2 0.570292 0.189526 0.794303
88 3 0.434682 0.249931 0.800297
296 10 0.784709 0.307358 0.800569
384 13 0.306273 0.240682 0.801173
87 3 0.475622 0.362297 0.802546
115 4 0.174536 0.342265 0.800426
355 12 0.187042 0.627976 0.797716
204 7 0.807649 0.523402 0.797505
25 1 0.375794 0.609273 0.802339
176 6 0.901558 0.58451 0.767531
146 5 0.132441 0.745863 0.775728
264 9 0.263669 0.90684 0.79749
475 16 0.784929 0.792312 0.79684
324 11 0.684537 0.8974 0.783265
445 15 0.825724 0.97001 0.776263
236 8 0.976404 0.864486 0.792964
56 2 0.57178 0.238002 0.828313
297 10 0.784467 0.262875 0.837624
385 13 0.254093 0.242475 0.835852
116 4 0.134319 0.352301 0.833665
205 7 0.808682 0.552581 0.832836
178 6 0.0868096 0.515768 0.81558
356 12 0.224252 0.666031 0.828763
26 1 0.453684 0.626681 0.830081
177 6 0.990186 0.541566 0.790273
147 5 0.114529 0.715171 0.812686
265 9 0.242364 0.919298 0.832882
476 16 0.721394 0.79889 0.828397
325 11 0.718436 0.945759 0.815956
446 15 0.892503 0.00725036 0.803225
417 14 0.170191 0.0396854 0.831187
298 10 0.769192 0.231554 0.872157
117 4 0.0682453 0.352812 0.866919
357 12 0.258179 0.670049 0.861588
27 1 0.524614 0.620725 0.858321
148 5 0.112393 0.652971 0.843696
477 16 0.651839 0.845548 0.852778
326 11 0.755931 0.94718 0.849834
237 8 0.997149 0.817445 0.823815
447 15 0.930817 0.0310927 0.836434
418 14 0.244679 0.0499518 0.859418
57 2 0.565674 0.208891 0.862533
386 13 0.224343 0.276036 0.871323
118 4 0.00491753 0.393155 0.897856
179 6 0.201289 0.498846 0.834507
28 1 0.571432 0.567593 0.888224
206 7 0.85361 0.600815 0.864886
149 5 0.118094 0.602737 0.875388
266 9 0.188442 0.888393 0.865804
238 8 0.0431844 0.827757 0.855597
327 11 0.785978 0.896602 0.882976
419 14 0.317145 0.0419083 0.888189
448 15 0.96299 0.0221288 0.87083
58 2 0.546557 0.192485 0.896926
299 10 0.76229 0.194739 0.907842
387 13 0.222238 0.342592 0.903311
180 6 0.291133 0.475217 0.862006
29 1 0.615836 0.501633 0.914774
358 12 0.288696 0.656689 0.895594
207 7 0.864346 0.659518 0.897648
150 5 0.0561734 0.585944 0.906993
479 16 0.552447 0.867069 0.912011
478 16 0.592315 0.88786 0.87986
239 8 0.0442014 0.867933 0.889966
267 9 0.178313 0.900491 0.904904
449 15 0.922123 0.0820255 0.900757
59 2 0.512319 0.148692 0.927692
300 10 0.740308 0.144586 0.938771
388 13 0.195455 0.383628 0.936766
119 4 0.921469 0.427551 0.923564
359 12 0.279912 0.660616 0.931807
208 7 0.883649 0.685299 0.933101
480 16 0.515842 0.852112 0.943226
268 9 0.228472 0.915656 0.938781
240 8 0.0584843 0.954262 0.917102
328 11 0.764845 0.868404 0.923178
420 14 0.375119 0.0501973 0.920296
450 15 0.911052 0.168746 0.925341
389 13 0.171579 0.426762 0.971486
120 4 0.834787 0.484235 0.947789
30 1 0.664722 0.429626 0.93912
360 12 0.234299 0.669546 0.967284
209 7 0.892987 0.74011 0.967238
269 9 0.277647 0.896525 0.97182
329 11 0.731087 0.859558 0.958037
60 2 0.465074 0.0677235 0.950326
390 13 0.146707 0.495527 0.999628
210 7 0.868207 0.784382 0.998313
ITEM: TIMESTEP
100000
ITEM: NUMBER OF ATOMS
480
ITEM: BOX BOUNDS
0 8
0 8
-0.0001 27.2512
ITEM: ATOMS id type xs ys zs
451 16 0 0 3.66954e-06
361 13 0.25 0 3.66954e-06
391 14 0.5 0 3.66954e-06
421 15 0.75 0 3.66954e-06
92 4 0.977628 0.166631 0.027548
91 4 0 0.25 3.66954e-06
1 1 0.25 0.25 3.66954e-06
31 2 0.5 0.25 3.66954e-06
61 3 0.75 0.25 3.66954e-06
62 3 0.74491 0.257495 0.0392283
212 8 0.973577 0.443171 0.0307552
211 8 0 0.5 3.66954e-06
121 5 0.25 0.5 3.66954e-06
151 6 0.5 0.5 3.66954e-06
181 7 0.75 0.5 3.66954e-06
331 12 0 0.75 3.66954e-06
241 9 0.25 0.75 3.66954e-06
271 10 0.5 0.75 3.66954e-06
301 11 0.75 0.75 3.66954e-06
452 16 0.0507774 0.89204 0.0084175
392 14 0.443825 0.95326 0.0277547
93 4 0.998322 0.101016 0.056139
362 13 0.265777 0.0440647 0.0305347
422 15 0.799574 0.00593888 0.0307877
32 2 0.509002 0.148675 0.0230332
3 1 0.148307 0.350774 0.0576938
2 1 0.208954 0.326889 0.0232367
213 8 0.908256 0.404597 0.0596832
122 5 0.264891 0.476532 0.0333898
152 6 0.480959 0.484497 0.0350886
182 7 0.707294 0.549031 0.0301135
242 9 0.238999 0.729459 0.038289
272 10 0.398113 0.693564 0.0160997
453 16 0.0831267 0.786205 0.0308819
302 11 0.691143 0.77127 0.0306984
332 12 0.943641 0.710568 0.0294383
393 14 0.354479 0.913555 0.0490189
423 15 0.840456 0.0229912 0.0637787
363 13 0.254609 0.12039 0.0599473
33 2 0.510622 0.0950931 0.0566349
214 8 0.855177 0.365052 0.089793
4 1 0.0799664 0.312764 0.0842909
63 3 0.69459 0.281944 0.0702007
153 6 0.464178 0.436852 0.0679228
123 5 0.272123 0.447246 0.0671578
454 16 0.117488 0.722199 0.0604203
243 9 0.222045 0.676158 0.0709092
273 10 0.342769 0.643944 0.0488697
183 7 0.699645 0.568646 0.0635838
303 11 0.614227 0.770663 0.0563304
333 12 0.910359 0.699303 0.0630849
394 14 0.272328 0.878087 0.0763583
94 4 0.0399139 0.0472198 0.088041
34 2 0.489428 0.0640277 0.0901757
424 15 0.876909 0.972971 0.0949831
364 13 0.223727 0.164109 0.0913897
215 8 0.831294 0.320356 0.121439
64 3 0.630425 0.339317 0.0984907
124 5 0.26718 0.440897 0.102655
154 6 0.438509 0.39634 0.10151
274 10 0.316694 0.600437 0.0811833
455 16 0.109115 0.659256 0.0914838
244 9 0.231596 0.667831 0.104862
184 7 0.720769 0.642023 0.0924946
304 11 0.547858 0.765015 0.086165
334 12 0.935477 0.66819 0.102466
395 14 0.181295 0.848865 0.100033
95 4 0.0652785 0.992774 0.118155
35 2 0.483173 0.0227799 0.129844
365 13 0.205417 0.16147 0.127051
155 6 0.395057 0.379971 0.135834
5 1 0.00831445 0.323616 0.112676
65 3 0.58203 0.422277 0.118719
456 16 0.10367 0.601532 0.124029
275 10 0.326246 0.59281 0.118323
185 7 0.713081 0.691398 0.129082
396 14 0.139783 0.796899 0.129845
305 11 0.521435 0.784354 0.120513
36 2 0.509054 0.995687 0.164324
216 8 0.802245 0.266237 0.153349
156 6 0.352704 0.331929 0.166148